 vasp.6.3.0 20Jan22 (build Apr  4 2022 15:35:13) complex                         
 executed on             LinuxIFC date 2022.04.08  08:45:57
 running   32 mpi-ranks, with    1 threads/rank
 distrk:  each k-point on   32 cores,    1 groups
 distr:  one band on NCORE=   1 cores,   32 groups


--------------------------------------------------------------------------------------------------------


 INCAR:
   SYSTEM = PrNiO3
   ENCUT = 550
   PREC = Normal
   NBANDS = 128
   ICHARG = 5
   ISYM = -1
   NELM = 1000
   NELMIN = 1000
   NELMDL = -12
   ISMEAR = -5
   SIGMA = 0.01
   NCORE = 1
   LMAXMIX = 6
   LORBIT = 14
   NEDOS = 2001
   EMIN = -1.5
   EMAX = 2.5
   LOCPROJ = 5 6 7 8 : d : Pr 1

 POTCAR:    PAW_PBE Pr_3 07Sep2000                
 POTCAR:    PAW_PBE Ni_pv 06Sep2000               
 POTCAR:    PAW_PBE O 08Apr2002                   
 POTCAR:    PAW_PBE Pr_3 07Sep2000                
   VRHFIN =Pr : [core=Xe4]                                                                          
   LEXCH  = PE                                                                                      
   EATOM  =   912.8502 eV,   67.0926 Ry                                                             
                                                                                                    
   TITEL  = PAW_PBE Pr_3 07Sep2000                                                                  
   LULTRA =        F    use ultrasoft PP ?                                                          
   IUNSCR =        1    unscreen: 0-lin 1-nonlin 2-no                                               
   RPACOR =    2.400    partial core radius                                                         
   POMASS =  140.907; ZVAL   =   11.000    mass and valenz                                          
   RCORE  =    2.800    outmost cutoff radius                                                       
   RWIGS  =    3.100; RWIGS  =    1.640    wigner-seitz radius (au A)                               
   ENMAX  =  181.719; ENMIN  =  136.289 eV                                                          
   RCLOC  =    2.419    cutoff for local pot                                                        
   LCOR   =        T    correct aug charges                                                         
   LPAW   =        T    paw PP                                                                      
   EAUG   =  303.718                                                                                
   DEXC   =    0.000                                                                                
   RMAX   =    2.867    core radius for proj-oper                                                   
   RAUG   =    1.300    factor for augmentation sphere                                              
   RDEP   =    2.816    radius for radial grids                                                     
   RDEPT  =    2.395    core radius for aug-charge                                                  
                                                                                                    
   Atomic configuration                                                                             
   14 entries                                                                                       
     n  l   j            E        occ.                                                              
     1  0  0.50    -41810.3934   2.0000                                                             
     2  0  0.50     -6731.1418   2.0000                                                             
     2  1  1.50     -6022.4876   6.0000                                                             
     3  0  0.50     -1458.2043   2.0000                                                             
     3  1  1.50     -1233.8862   6.0000                                                             
     3  2  2.50      -919.2566  10.0000                                                             
     4  0  0.50      -295.2681   2.0000                                                             
     4  1  1.50      -221.8430   6.0000                                                             
     4  2  2.50      -116.8418  10.0000                                                             
     4  3  2.50        -6.2311   2.0000                                                             
     5  0  0.50       -42.1589   2.0000                                                             
     6  0  0.50        -3.8068   2.0000                                                             
     5  1  1.50       -23.9655   6.0000                                                             
     5  2  2.50        -3.0008   1.0000                                                             
   Description                                                                                      
     l       E           TYP  RCUT    TYP  RCUT                                                     
     0    -42.1589422     23  2.800                                                                 
     0     -3.8068346     23  2.800                                                                 
     1    -23.9655307     23  2.800                                                                 
     1     13.6058260     23  2.800                                                                 
     2     -3.0008139     23  2.800                                                                 
     2     -0.1733532     23  2.800                                                                 
  local pseudopotential read in
  partial core-charges read in
  partial kinetic energy density read in
  atomic valenz-charges read in
  non local Contribution for L=           0  read in
    real space projection operators read in
  non local Contribution for L=           0  read in
    real space projection operators read in
  non local Contribution for L=           1  read in
    real space projection operators read in
  non local Contribution for L=           1  read in
    real space projection operators read in
  non local Contribution for L=           2  read in
    real space projection operators read in
  non local Contribution for L=           2  read in
    real space projection operators read in
    PAW grid and wavefunctions read in

   number of l-projection  operators is LMAX  =           6
   number of lm-projection operators is LMMAX =          18

 POTCAR:    PAW_PBE Ni_pv 06Sep2000               
   VRHFIN =Ni:                                                                                      
   LEXCH  = PE                                                                                      
   EATOM  =  3501.1230 eV,  257.3253 Ry                                                             
                                                                                                    
   TITEL  = PAW_PBE Ni_pv 06Sep2000                                                                 
   LULTRA =        F    use ultrasoft PP ?                                                          
   IUNSCR =        1    unscreen: 0-lin 1-nonlin 2-no                                               
   RPACOR =    1.500    partial core radius                                                         
   POMASS =   58.690; ZVAL   =   16.000    mass and valenz                                          
   RCORE  =    2.000    outmost cutoff radius                                                       
   RWIGS  =    2.000; RWIGS  =    1.058    wigner-seitz radius (au A)                               
   ENMAX  =  367.986; ENMIN  =  275.989 eV                                                          
   RCLOC  =    1.301    cutoff for local pot                                                        
   LCOR   =        T    correct aug charges                                                         
   LPAW   =        T    paw PP                                                                      
   EAUG   =  703.443                                                                                
   DEXC   =    0.000                                                                                
   RMAX   =    2.041    core radius for proj-oper                                                   
   RAUG   =    1.300    factor for augmentation sphere                                              
   RDEP   =    2.103    radius for radial grids                                                     
   RDEPT  =    1.618    core radius for aug-charge                                                  
                                                                                                    
   Atomic configuration                                                                             
    8 entries                                                                                       
     n  l   j            E        occ.                                                              
     1  0  0.50     -8206.4253   2.0000                                                             
     2  0  0.50      -976.1748   2.0000                                                             
     2  1  1.50      -839.0571   6.0000                                                             
     3  0  0.50      -105.9991   2.0000                                                             
     3  1  1.50       -66.4603   6.0000                                                             
     3  2  2.50        -4.6458   9.0000                                                             
     4  0  0.50        -4.4926   1.0000                                                             
     4  3  2.50        -1.3606   0.0000                                                             
   Description                                                                                      
     l       E           TYP  RCUT    TYP  RCUT                                                     
     1    -66.4602962     23  1.700                                                                 
     1     -1.3605826     23  1.700                                                                 
     2     -4.6457867     23  2.000                                                                 
     2     -6.0063693     23  2.000                                                                 
     0     -4.4925576     23  1.900                                                                 
     0     16.3626226     23  1.900                                                                 
  local pseudopotential read in
  partial core-charges read in
  partial kinetic energy density read in
  atomic valenz-charges read in
  non local Contribution for L=           1  read in
    real space projection operators read in
  non local Contribution for L=           1  read in
    real space projection operators read in
  non local Contribution for L=           2  read in
    real space projection operators read in
  non local Contribution for L=           2  read in
    real space projection operators read in
  non local Contribution for L=           0  read in
    real space projection operators read in
  non local Contribution for L=           0  read in
    real space projection operators read in
    PAW grid and wavefunctions read in

   number of l-projection  operators is LMAX  =           6
   number of lm-projection operators is LMMAX =          18

 POTCAR:    PAW_PBE O 08Apr2002                   
   VRHFIN =O: s2p4                                                                                  
   LEXCH  = PE                                                                                      
   EATOM  =   432.3788 eV,   31.7789 Ry                                                             
                                                                                                    
   TITEL  = PAW_PBE O 08Apr2002                                                                     
   LULTRA =        F    use ultrasoft PP ?                                                          
   IUNSCR =        1    unscreen: 0-lin 1-nonlin 2-no                                               
   RPACOR =    1.200    partial core radius                                                         
   POMASS =   16.000; ZVAL   =    6.000    mass and valenz                                          
   RCORE  =    1.520    outmost cutoff radius                                                       
   RWIGS  =    1.550; RWIGS  =    0.820    wigner-seitz radius (au A)                               
   ENMAX  =  400.000; ENMIN  =  300.000 eV                                                          
   ICORE  =        2    local potential                                                             
   LCOR   =        T    correct aug charges                                                         
   LPAW   =        T    paw PP                                                                      
   EAUG   =  605.392                                                                                
   DEXC   =    0.000                                                                                
   RMAX   =    1.553    core radius for proj-oper                                                   
   RAUG   =    1.300    factor for augmentation sphere                                              
   RDEP   =    1.550    radius for radial grids                                                     
   RDEPT  =    1.329    core radius for aug-charge                                                  
                                                                                                    
   Atomic configuration                                                                             
    4 entries                                                                                       
     n  l   j            E        occ.                                                              
     1  0  0.50      -514.6923   2.0000                                                             
     2  0  0.50       -23.9615   2.0000                                                             
     2  1  0.50        -9.0305   4.0000                                                             
     3  2  1.50        -9.5241   0.0000                                                             
   Description                                                                                      
     l       E           TYP  RCUT    TYP  RCUT                                                     
     0    -23.9615318     23  1.200                                                                 
     0     -9.5240782     23  1.200                                                                 
     1     -9.0304911     23  1.520                                                                 
     1      8.1634956     23  1.520                                                                 
     2     -9.5240782      7  1.500                                                                 
  local pseudopotential read in
  partial core-charges read in
  partial kinetic energy density read in
  kinetic energy density of atom read in
  atomic valenz-charges read in
  non local Contribution for L=           0  read in
    real space projection operators read in
  non local Contribution for L=           0  read in
    real space projection operators read in
  non local Contribution for L=           1  read in
    real space projection operators read in
  non local Contribution for L=           1  read in
    real space projection operators read in
    PAW grid and wavefunctions read in

   number of l-projection  operators is LMAX  =           4
   number of lm-projection operators is LMMAX =           8

 -----------------------------------------------------------------------------
|                                                                             |
|               ----> ADVICE to this user running VASP <----                  |
|                                                                             |
|     You have a (more or less) 'large supercell' and for larger cells it     |
|     might be more efficient to use real-space projection operators.         |
|     Therefore, try LREAL= Auto in the INCAR file.                           |
|     Mind: For very accurate calculation, you might also keep the            |
|     reciprocal projection scheme (i.e. LREAL=.FALSE.).                      |
|                                                                             |
 -----------------------------------------------------------------------------

  PAW_PBE Pr_3 07Sep2000                :
 energy of atom  1       EATOM= -912.8502
 kinetic energy error for atom=    0.0004 (will be added to EATOM!!)
  PAW_PBE Ni_pv 06Sep2000               :
 energy of atom  2       EATOM=-3501.1230
 kinetic energy error for atom=    0.0396 (will be added to EATOM!!)
  PAW_PBE O 08Apr2002                   :
 energy of atom  3       EATOM= -432.3788
 kinetic energy error for atom=    0.0194 (will be added to EATOM!!)


 POSCAR: PrNiO3
  positions in direct lattice
  No initial velocities read in
 exchange correlation table for  LEXCH =        8
   RHO(1)=    0.500       N(1)  =     2000
   RHO(2)=  100.500       N(2)  =     4000



--------------------------------------------------------------------------------------------------------


 ion  position               nearest neighbor table
   1  0.993  0.036  0.250-  20 2.40  16 2.44  15 2.44  18 2.51   9 2.56  10 2.57  13 2.73  14 2.73
                             6 3.17   8 3.17   4 3.78   4 3.78   2 3.86   2 3.86   4 3.90   4 3.90
   2  0.007  0.964  0.750-  17 2.40  14 2.44  13 2.44  19 2.51  11 2.56  12 2.57  15 2.73  16 2.73
                             6 3.17   8 3.17   3 3.78   3 3.78   1 3.86   1 3.86   3 3.90   3 3.90
   3  0.493  0.464  0.750-  19 2.40  11 2.44  12 2.44  17 2.51  14 2.56  13 2.57  10 2.73   9 2.73
                             5 3.17   7 3.17   2 3.78   2 3.78   4 3.86   4 3.86   2 3.90   2 3.90
   4  0.507  0.536  0.250-  18 2.40   9 2.44  10 2.44  20 2.51  16 2.56  15 2.57  12 2.73  11 2.73
                             5 3.17   7 3.17   1 3.78   1 3.78   3 3.86   3 3.86   1 3.90   1 3.90
   5  0.500  0.000  0.000-  13 1.98  15 1.98  11 1.98   9 1.98  17 1.98  20 1.98   3 3.17   4 3.17

   6  0.000  0.500  0.000-   9 1.93  11 1.93  15 1.93  13 1.93  19 1.93  18 1.93   1 3.17   2 3.17

   7  0.500  0.000  0.500-  14 1.93  16 1.93  12 1.93  10 1.93  17 1.93  20 1.93   3 3.17   4 3.17

   8  0.000  0.500  0.500-  10 1.98  12 1.98  16 1.98  14 1.98  19 1.98  18 1.98   1 3.17   2 3.17

   9  0.724  0.283  0.038-   6 1.93   5 1.98   4 2.44   1 2.56   3 2.73
  10  0.718  0.276  0.462-   7 1.93   8 1.98   4 2.44   1 2.57   3 2.73
  11  0.276  0.717  0.962-   6 1.93   5 1.98   3 2.44   2 2.56   4 2.73
  12  0.282  0.724  0.538-   7 1.93   8 1.98   3 2.44   2 2.57   4 2.73
  13  0.218  0.224  0.962-   6 1.93   5 1.98   2 2.44   3 2.57   1 2.73
  14  0.224  0.217  0.538-   7 1.93   8 1.98   2 2.44   3 2.56   1 2.73
  15  0.782  0.776  0.038-   6 1.93   5 1.98   1 2.44   4 2.57   2 2.73
  16  0.776  0.783  0.462-   7 1.93   8 1.98   1 2.44   4 2.56   2 2.73
  17  0.568  0.006  0.747-   7 1.93   5 1.98   2 2.40   3 2.51
  18  0.068  0.494  0.247-   6 1.93   8 1.98   4 2.40   1 2.51
  19  0.932  0.506  0.753-   6 1.93   8 1.98   3 2.40   2 2.51
  20  0.432  0.994  0.253-   7 1.93   5 1.98   1 2.40   4 2.51


IMPORTANT INFORMATION: All symmetrisations will be switched off!
NOSYMM: (Re-)initialisation of all symmetry stuff for point group C_1.


----------------------------------------------------------------------------------------

                                     Primitive cell                                     

  volume of cell :     226.6379

  direct lattice vectors                    reciprocal lattice vectors
     5.440290838 -0.000000000  0.000000000     0.183813702 -0.000000000  0.000000000
     0.000000000  5.419716597  0.000000000     0.000000000  0.184511493 -0.000000000
     0.000000000  0.000000000  7.686592486    -0.000000000  0.000000000  0.130096659

  length of vectors
     5.440290838  5.419716597  7.686592486     0.183813702  0.184511493  0.130096659

  position of ions in fractional coordinates (direct lattice)
     0.992500481  0.036009512  0.250000000
     0.007499519  0.963990488  0.750000000
     0.492500481  0.463990488  0.750000000
     0.507499519  0.536009512  0.250000000
     0.500000000  0.000000000  0.000000000
     0.000000000  0.500000000  0.000000000
     0.500000000  0.000000000  0.500000000
     0.000000000  0.500000000  0.500000000
     0.724459684  0.282999785  0.037941946
     0.717695326  0.276235427  0.462058051
     0.275540316  0.717000245  0.962058080
     0.282304674  0.723764603  0.537941920
     0.217695326  0.223764573  0.962058080
     0.224459684  0.217000215  0.537941920
     0.782304674  0.776235397  0.037941946
     0.775540316  0.782999755  0.462058051
     0.568297090  0.006306752  0.746617821
     0.068297119  0.493693248  0.246617821
     0.931702910  0.506306782  0.753382179
     0.431702881  0.993693218  0.253382179

  ion indices of the primitive-cell ions
   primitive index   ion index
                 1           1
                 2           2
                 3           3
                 4           4
                 5           5
                 6           6
                 7           7
                 8           8
                 9           9
                10          10
                11          11
                12          12
                13          13
                14          14
                15          15
                16          16
                17          17
                18          18
                19          19
                20          20

----------------------------------------------------------------------------------------



 KPOINTS: Automatic kpoint scheme                 

Automatic generation of k-mesh.
 Grid dimensions read from file:
 generate k-points for:    7    7    5

 Generating k-lattice:

  Cartesian coordinates                     Fractional coordinates (reciprocal lattice)
     0.026259100 -0.000000000  0.000000000     0.142857143  0.000000000  0.000000000
     0.000000000  0.026358785 -0.000000000     0.000000000  0.142857143  0.000000000
    -0.000000000  0.000000000  0.026019332     0.000000000  0.000000000  0.200000000

  Length of vectors
     0.026259100  0.026358785  0.026019332

  Shift w.r.t. Gamma in fractional coordinates (k-lattice)
     0.000000000  0.000000000  0.000000000

 TETIRR: Found   1470 inequivalent tetrahedra from     1470
 
 Subroutine IBZKPT returns following result:
 ===========================================
 
 Found    245 irreducible k-points:
 
 Following reciprocal coordinates:
            Coordinates               Weight
  0.000000  0.000000  0.000000      1.000000
  0.142857  0.000000  0.000000      1.000000
  0.285714  0.000000  0.000000      1.000000
  0.428571  0.000000  0.000000      1.000000
 -0.428571  0.000000  0.000000      1.000000
 -0.285714  0.000000  0.000000      1.000000
 -0.142857  0.000000  0.000000      1.000000
  0.000000  0.142857  0.000000      1.000000
  0.142857  0.142857  0.000000      1.000000
  0.285714  0.142857  0.000000      1.000000
  0.428571  0.142857  0.000000      1.000000
 -0.428571  0.142857  0.000000      1.000000
 -0.285714  0.142857  0.000000      1.000000
 -0.142857  0.142857  0.000000      1.000000
  0.000000  0.285714  0.000000      1.000000
  0.142857  0.285714  0.000000      1.000000
  0.285714  0.285714  0.000000      1.000000
  0.428571  0.285714  0.000000      1.000000
 -0.428571  0.285714  0.000000      1.000000
 -0.285714  0.285714  0.000000      1.000000
 -0.142857  0.285714  0.000000      1.000000
  0.000000  0.428571  0.000000      1.000000
  0.142857  0.428571  0.000000      1.000000
  0.285714  0.428571  0.000000      1.000000
  0.428571  0.428571  0.000000      1.000000
 -0.428571  0.428571  0.000000      1.000000
 -0.285714  0.428571  0.000000      1.000000
 -0.142857  0.428571  0.000000      1.000000
  0.000000 -0.428571  0.000000      1.000000
  0.142857 -0.428571  0.000000      1.000000
  0.285714 -0.428571  0.000000      1.000000
  0.428571 -0.428571  0.000000      1.000000
 -0.428571 -0.428571  0.000000      1.000000
 -0.285714 -0.428571  0.000000      1.000000
 -0.142857 -0.428571  0.000000      1.000000
  0.000000 -0.285714  0.000000      1.000000
  0.142857 -0.285714  0.000000      1.000000
  0.285714 -0.285714  0.000000      1.000000
  0.428571 -0.285714  0.000000      1.000000
 -0.428571 -0.285714  0.000000      1.000000
 -0.285714 -0.285714  0.000000      1.000000
 -0.142857 -0.285714  0.000000      1.000000
  0.000000 -0.142857  0.000000      1.000000
  0.142857 -0.142857  0.000000      1.000000
  0.285714 -0.142857  0.000000      1.000000
  0.428571 -0.142857  0.000000      1.000000
 -0.428571 -0.142857  0.000000      1.000000
 -0.285714 -0.142857  0.000000      1.000000
 -0.142857 -0.142857  0.000000      1.000000
  0.000000  0.000000  0.200000      1.000000
  0.142857  0.000000  0.200000      1.000000
  0.285714  0.000000  0.200000      1.000000
  0.428571  0.000000  0.200000      1.000000
 -0.428571  0.000000  0.200000      1.000000
 -0.285714  0.000000  0.200000      1.000000
 -0.142857  0.000000  0.200000      1.000000
  0.000000  0.142857  0.200000      1.000000
  0.142857  0.142857  0.200000      1.000000
  0.285714  0.142857  0.200000      1.000000
  0.428571  0.142857  0.200000      1.000000
 -0.428571  0.142857  0.200000      1.000000
 -0.285714  0.142857  0.200000      1.000000
 -0.142857  0.142857  0.200000      1.000000
  0.000000  0.285714  0.200000      1.000000
  0.142857  0.285714  0.200000      1.000000
  0.285714  0.285714  0.200000      1.000000
  0.428571  0.285714  0.200000      1.000000
 -0.428571  0.285714  0.200000      1.000000
 -0.285714  0.285714  0.200000      1.000000
 -0.142857  0.285714  0.200000      1.000000
  0.000000  0.428571  0.200000      1.000000
  0.142857  0.428571  0.200000      1.000000
  0.285714  0.428571  0.200000      1.000000
  0.428571  0.428571  0.200000      1.000000
 -0.428571  0.428571  0.200000      1.000000
 -0.285714  0.428571  0.200000      1.000000
 -0.142857  0.428571  0.200000      1.000000
  0.000000 -0.428571  0.200000      1.000000
  0.142857 -0.428571  0.200000      1.000000
  0.285714 -0.428571  0.200000      1.000000
  0.428571 -0.428571  0.200000      1.000000
 -0.428571 -0.428571  0.200000      1.000000
 -0.285714 -0.428571  0.200000      1.000000
 -0.142857 -0.428571  0.200000      1.000000
  0.000000 -0.285714  0.200000      1.000000
  0.142857 -0.285714  0.200000      1.000000
  0.285714 -0.285714  0.200000      1.000000
  0.428571 -0.285714  0.200000      1.000000
 -0.428571 -0.285714  0.200000      1.000000
 -0.285714 -0.285714  0.200000      1.000000
 -0.142857 -0.285714  0.200000      1.000000
  0.000000 -0.142857  0.200000      1.000000
  0.142857 -0.142857  0.200000      1.000000
  0.285714 -0.142857  0.200000      1.000000
  0.428571 -0.142857  0.200000      1.000000
 -0.428571 -0.142857  0.200000      1.000000
 -0.285714 -0.142857  0.200000      1.000000
 -0.142857 -0.142857  0.200000      1.000000
  0.000000  0.000000  0.400000      1.000000
  0.142857  0.000000  0.400000      1.000000
  0.285714  0.000000  0.400000      1.000000
  0.428571  0.000000  0.400000      1.000000
 -0.428571  0.000000  0.400000      1.000000
 -0.285714  0.000000  0.400000      1.000000
 -0.142857  0.000000  0.400000      1.000000
  0.000000  0.142857  0.400000      1.000000
  0.142857  0.142857  0.400000      1.000000
  0.285714  0.142857  0.400000      1.000000
  0.428571  0.142857  0.400000      1.000000
 -0.428571  0.142857  0.400000      1.000000
 -0.285714  0.142857  0.400000      1.000000
 -0.142857  0.142857  0.400000      1.000000
  0.000000  0.285714  0.400000      1.000000
  0.142857  0.285714  0.400000      1.000000
  0.285714  0.285714  0.400000      1.000000
  0.428571  0.285714  0.400000      1.000000
 -0.428571  0.285714  0.400000      1.000000
 -0.285714  0.285714  0.400000      1.000000
 -0.142857  0.285714  0.400000      1.000000
  0.000000  0.428571  0.400000      1.000000
  0.142857  0.428571  0.400000      1.000000
  0.285714  0.428571  0.400000      1.000000
  0.428571  0.428571  0.400000      1.000000
 -0.428571  0.428571  0.400000      1.000000
 -0.285714  0.428571  0.400000      1.000000
 -0.142857  0.428571  0.400000      1.000000
  0.000000 -0.428571  0.400000      1.000000
  0.142857 -0.428571  0.400000      1.000000
  0.285714 -0.428571  0.400000      1.000000
  0.428571 -0.428571  0.400000      1.000000
 -0.428571 -0.428571  0.400000      1.000000
 -0.285714 -0.428571  0.400000      1.000000
 -0.142857 -0.428571  0.400000      1.000000
  0.000000 -0.285714  0.400000      1.000000
  0.142857 -0.285714  0.400000      1.000000
  0.285714 -0.285714  0.400000      1.000000
  0.428571 -0.285714  0.400000      1.000000
 -0.428571 -0.285714  0.400000      1.000000
 -0.285714 -0.285714  0.400000      1.000000
 -0.142857 -0.285714  0.400000      1.000000
  0.000000 -0.142857  0.400000      1.000000
  0.142857 -0.142857  0.400000      1.000000
  0.285714 -0.142857  0.400000      1.000000
  0.428571 -0.142857  0.400000      1.000000
 -0.428571 -0.142857  0.400000      1.000000
 -0.285714 -0.142857  0.400000      1.000000
 -0.142857 -0.142857  0.400000      1.000000
  0.000000  0.000000 -0.400000      1.000000
  0.142857  0.000000 -0.400000      1.000000
  0.285714  0.000000 -0.400000      1.000000
  0.428571  0.000000 -0.400000      1.000000
 -0.428571  0.000000 -0.400000      1.000000
 -0.285714  0.000000 -0.400000      1.000000
 -0.142857  0.000000 -0.400000      1.000000
  0.000000  0.142857 -0.400000      1.000000
  0.142857  0.142857 -0.400000      1.000000
  0.285714  0.142857 -0.400000      1.000000
  0.428571  0.142857 -0.400000      1.000000
 -0.428571  0.142857 -0.400000      1.000000
 -0.285714  0.142857 -0.400000      1.000000
 -0.142857  0.142857 -0.400000      1.000000
  0.000000  0.285714 -0.400000      1.000000
  0.142857  0.285714 -0.400000      1.000000
  0.285714  0.285714 -0.400000      1.000000
  0.428571  0.285714 -0.400000      1.000000
 -0.428571  0.285714 -0.400000      1.000000
 -0.285714  0.285714 -0.400000      1.000000
 -0.142857  0.285714 -0.400000      1.000000
  0.000000  0.428571 -0.400000      1.000000
  0.142857  0.428571 -0.400000      1.000000
  0.285714  0.428571 -0.400000      1.000000
  0.428571  0.428571 -0.400000      1.000000
 -0.428571  0.428571 -0.400000      1.000000
 -0.285714  0.428571 -0.400000      1.000000
 -0.142857  0.428571 -0.400000      1.000000
  0.000000 -0.428571 -0.400000      1.000000
  0.142857 -0.428571 -0.400000      1.000000
  0.285714 -0.428571 -0.400000      1.000000
  0.428571 -0.428571 -0.400000      1.000000
 -0.428571 -0.428571 -0.400000      1.000000
 -0.285714 -0.428571 -0.400000      1.000000
 -0.142857 -0.428571 -0.400000      1.000000
  0.000000 -0.285714 -0.400000      1.000000
  0.142857 -0.285714 -0.400000      1.000000
  0.285714 -0.285714 -0.400000      1.000000
  0.428571 -0.285714 -0.400000      1.000000
 -0.428571 -0.285714 -0.400000      1.000000
 -0.285714 -0.285714 -0.400000      1.000000
 -0.142857 -0.285714 -0.400000      1.000000
  0.000000 -0.142857 -0.400000      1.000000
  0.142857 -0.142857 -0.400000      1.000000
  0.285714 -0.142857 -0.400000      1.000000
  0.428571 -0.142857 -0.400000      1.000000
 -0.428571 -0.142857 -0.400000      1.000000
 -0.285714 -0.142857 -0.400000      1.000000
 -0.142857 -0.142857 -0.400000      1.000000
  0.000000  0.000000 -0.200000      1.000000
  0.142857  0.000000 -0.200000      1.000000
  0.285714  0.000000 -0.200000      1.000000
  0.428571  0.000000 -0.200000      1.000000
 -0.428571  0.000000 -0.200000      1.000000
 -0.285714  0.000000 -0.200000      1.000000
 -0.142857  0.000000 -0.200000      1.000000
  0.000000  0.142857 -0.200000      1.000000
  0.142857  0.142857 -0.200000      1.000000
  0.285714  0.142857 -0.200000      1.000000
  0.428571  0.142857 -0.200000      1.000000
 -0.428571  0.142857 -0.200000      1.000000
 -0.285714  0.142857 -0.200000      1.000000
 -0.142857  0.142857 -0.200000      1.000000
  0.000000  0.285714 -0.200000      1.000000
  0.142857  0.285714 -0.200000      1.000000
  0.285714  0.285714 -0.200000      1.000000
  0.428571  0.285714 -0.200000      1.000000
 -0.428571  0.285714 -0.200000      1.000000
 -0.285714  0.285714 -0.200000      1.000000
 -0.142857  0.285714 -0.200000      1.000000
  0.000000  0.428571 -0.200000      1.000000
  0.142857  0.428571 -0.200000      1.000000
  0.285714  0.428571 -0.200000      1.000000
  0.428571  0.428571 -0.200000      1.000000
 -0.428571  0.428571 -0.200000      1.000000
 -0.285714  0.428571 -0.200000      1.000000
 -0.142857  0.428571 -0.200000      1.000000
  0.000000 -0.428571 -0.200000      1.000000
  0.142857 -0.428571 -0.200000      1.000000
  0.285714 -0.428571 -0.200000      1.000000
  0.428571 -0.428571 -0.200000      1.000000
 -0.428571 -0.428571 -0.200000      1.000000
 -0.285714 -0.428571 -0.200000      1.000000
 -0.142857 -0.428571 -0.200000      1.000000
  0.000000 -0.285714 -0.200000      1.000000
  0.142857 -0.285714 -0.200000      1.000000
  0.285714 -0.285714 -0.200000      1.000000
  0.428571 -0.285714 -0.200000      1.000000
 -0.428571 -0.285714 -0.200000      1.000000
 -0.285714 -0.285714 -0.200000      1.000000
 -0.142857 -0.285714 -0.200000      1.000000
  0.000000 -0.142857 -0.200000      1.000000
  0.142857 -0.142857 -0.200000      1.000000
  0.285714 -0.142857 -0.200000      1.000000
  0.428571 -0.142857 -0.200000      1.000000
 -0.428571 -0.142857 -0.200000      1.000000
 -0.285714 -0.142857 -0.200000      1.000000
 -0.142857 -0.142857 -0.200000      1.000000
 
 Following cartesian coordinates:
            Coordinates               Weight
  0.000000  0.000000  0.000000      1.000000
  0.026259  0.000000  0.000000      1.000000
  0.052518  0.000000  0.000000      1.000000
  0.078777  0.000000  0.000000      1.000000
 -0.078777  0.000000  0.000000      1.000000
 -0.052518  0.000000  0.000000      1.000000
 -0.026259  0.000000  0.000000      1.000000
  0.000000  0.026359  0.000000      1.000000
  0.026259  0.026359  0.000000      1.000000
  0.052518  0.026359  0.000000      1.000000
  0.078777  0.026359  0.000000      1.000000
 -0.078777  0.026359  0.000000      1.000000
 -0.052518  0.026359  0.000000      1.000000
 -0.026259  0.026359  0.000000      1.000000
  0.000000  0.052718  0.000000      1.000000
  0.026259  0.052718  0.000000      1.000000
  0.052518  0.052718  0.000000      1.000000
  0.078777  0.052718  0.000000      1.000000
 -0.078777  0.052718  0.000000      1.000000
 -0.052518  0.052718  0.000000      1.000000
 -0.026259  0.052718  0.000000      1.000000
  0.000000  0.079076  0.000000      1.000000
  0.026259  0.079076  0.000000      1.000000
  0.052518  0.079076  0.000000      1.000000
  0.078777  0.079076  0.000000      1.000000
 -0.078777  0.079076  0.000000      1.000000
 -0.052518  0.079076  0.000000      1.000000
 -0.026259  0.079076  0.000000      1.000000
  0.000000 -0.079076  0.000000      1.000000
  0.026259 -0.079076  0.000000      1.000000
  0.052518 -0.079076  0.000000      1.000000
  0.078777 -0.079076  0.000000      1.000000
 -0.078777 -0.079076  0.000000      1.000000
 -0.052518 -0.079076  0.000000      1.000000
 -0.026259 -0.079076  0.000000      1.000000
  0.000000 -0.052718  0.000000      1.000000
  0.026259 -0.052718  0.000000      1.000000
  0.052518 -0.052718  0.000000      1.000000
  0.078777 -0.052718  0.000000      1.000000
 -0.078777 -0.052718  0.000000      1.000000
 -0.052518 -0.052718  0.000000      1.000000
 -0.026259 -0.052718  0.000000      1.000000
  0.000000 -0.026359  0.000000      1.000000
  0.026259 -0.026359  0.000000      1.000000
  0.052518 -0.026359  0.000000      1.000000
  0.078777 -0.026359  0.000000      1.000000
 -0.078777 -0.026359  0.000000      1.000000
 -0.052518 -0.026359  0.000000      1.000000
 -0.026259 -0.026359  0.000000      1.000000
  0.000000  0.000000  0.026019      1.000000
  0.026259  0.000000  0.026019      1.000000
  0.052518  0.000000  0.026019      1.000000
  0.078777  0.000000  0.026019      1.000000
 -0.078777  0.000000  0.026019      1.000000
 -0.052518  0.000000  0.026019      1.000000
 -0.026259  0.000000  0.026019      1.000000
  0.000000  0.026359  0.026019      1.000000
  0.026259  0.026359  0.026019      1.000000
  0.052518  0.026359  0.026019      1.000000
  0.078777  0.026359  0.026019      1.000000
 -0.078777  0.026359  0.026019      1.000000
 -0.052518  0.026359  0.026019      1.000000
 -0.026259  0.026359  0.026019      1.000000
  0.000000  0.052718  0.026019      1.000000
  0.026259  0.052718  0.026019      1.000000
  0.052518  0.052718  0.026019      1.000000
  0.078777  0.052718  0.026019      1.000000
 -0.078777  0.052718  0.026019      1.000000
 -0.052518  0.052718  0.026019      1.000000
 -0.026259  0.052718  0.026019      1.000000
  0.000000  0.079076  0.026019      1.000000
  0.026259  0.079076  0.026019      1.000000
  0.052518  0.079076  0.026019      1.000000
  0.078777  0.079076  0.026019      1.000000
 -0.078777  0.079076  0.026019      1.000000
 -0.052518  0.079076  0.026019      1.000000
 -0.026259  0.079076  0.026019      1.000000
  0.000000 -0.079076  0.026019      1.000000
  0.026259 -0.079076  0.026019      1.000000
  0.052518 -0.079076  0.026019      1.000000
  0.078777 -0.079076  0.026019      1.000000
 -0.078777 -0.079076  0.026019      1.000000
 -0.052518 -0.079076  0.026019      1.000000
 -0.026259 -0.079076  0.026019      1.000000
  0.000000 -0.052718  0.026019      1.000000
  0.026259 -0.052718  0.026019      1.000000
  0.052518 -0.052718  0.026019      1.000000
  0.078777 -0.052718  0.026019      1.000000
 -0.078777 -0.052718  0.026019      1.000000
 -0.052518 -0.052718  0.026019      1.000000
 -0.026259 -0.052718  0.026019      1.000000
  0.000000 -0.026359  0.026019      1.000000
  0.026259 -0.026359  0.026019      1.000000
  0.052518 -0.026359  0.026019      1.000000
  0.078777 -0.026359  0.026019      1.000000
 -0.078777 -0.026359  0.026019      1.000000
 -0.052518 -0.026359  0.026019      1.000000
 -0.026259 -0.026359  0.026019      1.000000
  0.000000  0.000000  0.052039      1.000000
  0.026259  0.000000  0.052039      1.000000
  0.052518  0.000000  0.052039      1.000000
  0.078777  0.000000  0.052039      1.000000
 -0.078777  0.000000  0.052039      1.000000
 -0.052518  0.000000  0.052039      1.000000
 -0.026259  0.000000  0.052039      1.000000
  0.000000  0.026359  0.052039      1.000000
  0.026259  0.026359  0.052039      1.000000
  0.052518  0.026359  0.052039      1.000000
  0.078777  0.026359  0.052039      1.000000
 -0.078777  0.026359  0.052039      1.000000
 -0.052518  0.026359  0.052039      1.000000
 -0.026259  0.026359  0.052039      1.000000
  0.000000  0.052718  0.052039      1.000000
  0.026259  0.052718  0.052039      1.000000
  0.052518  0.052718  0.052039      1.000000
  0.078777  0.052718  0.052039      1.000000
 -0.078777  0.052718  0.052039      1.000000
 -0.052518  0.052718  0.052039      1.000000
 -0.026259  0.052718  0.052039      1.000000
  0.000000  0.079076  0.052039      1.000000
  0.026259  0.079076  0.052039      1.000000
  0.052518  0.079076  0.052039      1.000000
  0.078777  0.079076  0.052039      1.000000
 -0.078777  0.079076  0.052039      1.000000
 -0.052518  0.079076  0.052039      1.000000
 -0.026259  0.079076  0.052039      1.000000
  0.000000 -0.079076  0.052039      1.000000
  0.026259 -0.079076  0.052039      1.000000
  0.052518 -0.079076  0.052039      1.000000
  0.078777 -0.079076  0.052039      1.000000
 -0.078777 -0.079076  0.052039      1.000000
 -0.052518 -0.079076  0.052039      1.000000
 -0.026259 -0.079076  0.052039      1.000000
  0.000000 -0.052718  0.052039      1.000000
  0.026259 -0.052718  0.052039      1.000000
  0.052518 -0.052718  0.052039      1.000000
  0.078777 -0.052718  0.052039      1.000000
 -0.078777 -0.052718  0.052039      1.000000
 -0.052518 -0.052718  0.052039      1.000000
 -0.026259 -0.052718  0.052039      1.000000
  0.000000 -0.026359  0.052039      1.000000
  0.026259 -0.026359  0.052039      1.000000
  0.052518 -0.026359  0.052039      1.000000
  0.078777 -0.026359  0.052039      1.000000
 -0.078777 -0.026359  0.052039      1.000000
 -0.052518 -0.026359  0.052039      1.000000
 -0.026259 -0.026359  0.052039      1.000000
  0.000000  0.000000 -0.052039      1.000000
  0.026259  0.000000 -0.052039      1.000000
  0.052518  0.000000 -0.052039      1.000000
  0.078777  0.000000 -0.052039      1.000000
 -0.078777  0.000000 -0.052039      1.000000
 -0.052518  0.000000 -0.052039      1.000000
 -0.026259  0.000000 -0.052039      1.000000
  0.000000  0.026359 -0.052039      1.000000
  0.026259  0.026359 -0.052039      1.000000
  0.052518  0.026359 -0.052039      1.000000
  0.078777  0.026359 -0.052039      1.000000
 -0.078777  0.026359 -0.052039      1.000000
 -0.052518  0.026359 -0.052039      1.000000
 -0.026259  0.026359 -0.052039      1.000000
  0.000000  0.052718 -0.052039      1.000000
  0.026259  0.052718 -0.052039      1.000000
  0.052518  0.052718 -0.052039      1.000000
  0.078777  0.052718 -0.052039      1.000000
 -0.078777  0.052718 -0.052039      1.000000
 -0.052518  0.052718 -0.052039      1.000000
 -0.026259  0.052718 -0.052039      1.000000
  0.000000  0.079076 -0.052039      1.000000
  0.026259  0.079076 -0.052039      1.000000
  0.052518  0.079076 -0.052039      1.000000
  0.078777  0.079076 -0.052039      1.000000
 -0.078777  0.079076 -0.052039      1.000000
 -0.052518  0.079076 -0.052039      1.000000
 -0.026259  0.079076 -0.052039      1.000000
  0.000000 -0.079076 -0.052039      1.000000
  0.026259 -0.079076 -0.052039      1.000000
  0.052518 -0.079076 -0.052039      1.000000
  0.078777 -0.079076 -0.052039      1.000000
 -0.078777 -0.079076 -0.052039      1.000000
 -0.052518 -0.079076 -0.052039      1.000000
 -0.026259 -0.079076 -0.052039      1.000000
  0.000000 -0.052718 -0.052039      1.000000
  0.026259 -0.052718 -0.052039      1.000000
  0.052518 -0.052718 -0.052039      1.000000
  0.078777 -0.052718 -0.052039      1.000000
 -0.078777 -0.052718 -0.052039      1.000000
 -0.052518 -0.052718 -0.052039      1.000000
 -0.026259 -0.052718 -0.052039      1.000000
  0.000000 -0.026359 -0.052039      1.000000
  0.026259 -0.026359 -0.052039      1.000000
  0.052518 -0.026359 -0.052039      1.000000
  0.078777 -0.026359 -0.052039      1.000000
 -0.078777 -0.026359 -0.052039      1.000000
 -0.052518 -0.026359 -0.052039      1.000000
 -0.026259 -0.026359 -0.052039      1.000000
  0.000000  0.000000 -0.026019      1.000000
  0.026259  0.000000 -0.026019      1.000000
  0.052518  0.000000 -0.026019      1.000000
  0.078777  0.000000 -0.026019      1.000000
 -0.078777  0.000000 -0.026019      1.000000
 -0.052518  0.000000 -0.026019      1.000000
 -0.026259  0.000000 -0.026019      1.000000
  0.000000  0.026359 -0.026019      1.000000
  0.026259  0.026359 -0.026019      1.000000
  0.052518  0.026359 -0.026019      1.000000
  0.078777  0.026359 -0.026019      1.000000
 -0.078777  0.026359 -0.026019      1.000000
 -0.052518  0.026359 -0.026019      1.000000
 -0.026259  0.026359 -0.026019      1.000000
  0.000000  0.052718 -0.026019      1.000000
  0.026259  0.052718 -0.026019      1.000000
  0.052518  0.052718 -0.026019      1.000000
  0.078777  0.052718 -0.026019      1.000000
 -0.078777  0.052718 -0.026019      1.000000
 -0.052518  0.052718 -0.026019      1.000000
 -0.026259  0.052718 -0.026019      1.000000
  0.000000  0.079076 -0.026019      1.000000
  0.026259  0.079076 -0.026019      1.000000
  0.052518  0.079076 -0.026019      1.000000
  0.078777  0.079076 -0.026019      1.000000
 -0.078777  0.079076 -0.026019      1.000000
 -0.052518  0.079076 -0.026019      1.000000
 -0.026259  0.079076 -0.026019      1.000000
  0.000000 -0.079076 -0.026019      1.000000
  0.026259 -0.079076 -0.026019      1.000000
  0.052518 -0.079076 -0.026019      1.000000
  0.078777 -0.079076 -0.026019      1.000000
 -0.078777 -0.079076 -0.026019      1.000000
 -0.052518 -0.079076 -0.026019      1.000000
 -0.026259 -0.079076 -0.026019      1.000000
  0.000000 -0.052718 -0.026019      1.000000
  0.026259 -0.052718 -0.026019      1.000000
  0.052518 -0.052718 -0.026019      1.000000
  0.078777 -0.052718 -0.026019      1.000000
 -0.078777 -0.052718 -0.026019      1.000000
 -0.052518 -0.052718 -0.026019      1.000000
 -0.026259 -0.052718 -0.026019      1.000000
  0.000000 -0.026359 -0.026019      1.000000
  0.026259 -0.026359 -0.026019      1.000000
  0.052518 -0.026359 -0.026019      1.000000
  0.078777 -0.026359 -0.026019      1.000000
 -0.078777 -0.026359 -0.026019      1.000000
 -0.052518 -0.026359 -0.026019      1.000000
 -0.026259 -0.026359 -0.026019      1.000000
 
 WARNING: full set of k-points will be restricted to regular points only.

 
 Subroutine IBZKPT_HF returns following result:
 ==============================================
 
 Found    245 k-points in 1st BZ
 the following    245 k-points will be used (e.g. in the exchange kernel)
 Following reciprocal coordinates:   # in IRBZ
  0.000000  0.000000  0.000000    0.00408163   1 t-inv F
  0.142857  0.000000  0.000000    0.00408163   2 t-inv F
  0.285714  0.000000  0.000000    0.00408163   3 t-inv F
  0.428571  0.000000  0.000000    0.00408163   4 t-inv F
 -0.428571  0.000000  0.000000    0.00408163   5 t-inv F
 -0.285714  0.000000  0.000000    0.00408163   6 t-inv F
 -0.142857  0.000000  0.000000    0.00408163   7 t-inv F
  0.000000  0.142857  0.000000    0.00408163   8 t-inv F
  0.142857  0.142857  0.000000    0.00408163   9 t-inv F
  0.285714  0.142857  0.000000    0.00408163  10 t-inv F
  0.428571  0.142857  0.000000    0.00408163  11 t-inv F
 -0.428571  0.142857  0.000000    0.00408163  12 t-inv F
 -0.285714  0.142857  0.000000    0.00408163  13 t-inv F
 -0.142857  0.142857  0.000000    0.00408163  14 t-inv F
  0.000000  0.285714  0.000000    0.00408163  15 t-inv F
  0.142857  0.285714  0.000000    0.00408163  16 t-inv F
  0.285714  0.285714  0.000000    0.00408163  17 t-inv F
  0.428571  0.285714  0.000000    0.00408163  18 t-inv F
 -0.428571  0.285714  0.000000    0.00408163  19 t-inv F
 -0.285714  0.285714  0.000000    0.00408163  20 t-inv F
 -0.142857  0.285714  0.000000    0.00408163  21 t-inv F
  0.000000  0.428571  0.000000    0.00408163  22 t-inv F
  0.142857  0.428571  0.000000    0.00408163  23 t-inv F
  0.285714  0.428571  0.000000    0.00408163  24 t-inv F
  0.428571  0.428571  0.000000    0.00408163  25 t-inv F
 -0.428571  0.428571  0.000000    0.00408163  26 t-inv F
 -0.285714  0.428571  0.000000    0.00408163  27 t-inv F
 -0.142857  0.428571  0.000000    0.00408163  28 t-inv F
  0.000000 -0.428571  0.000000    0.00408163  29 t-inv F
  0.142857 -0.428571  0.000000    0.00408163  30 t-inv F
  0.285714 -0.428571  0.000000    0.00408163  31 t-inv F
  0.428571 -0.428571  0.000000    0.00408163  32 t-inv F
 -0.428571 -0.428571  0.000000    0.00408163  33 t-inv F
 -0.285714 -0.428571  0.000000    0.00408163  34 t-inv F
 -0.142857 -0.428571  0.000000    0.00408163  35 t-inv F
  0.000000 -0.285714  0.000000    0.00408163  36 t-inv F
  0.142857 -0.285714  0.000000    0.00408163  37 t-inv F
  0.285714 -0.285714  0.000000    0.00408163  38 t-inv F
  0.428571 -0.285714  0.000000    0.00408163  39 t-inv F
 -0.428571 -0.285714  0.000000    0.00408163  40 t-inv F
 -0.285714 -0.285714  0.000000    0.00408163  41 t-inv F
 -0.142857 -0.285714  0.000000    0.00408163  42 t-inv F
  0.000000 -0.142857  0.000000    0.00408163  43 t-inv F
  0.142857 -0.142857  0.000000    0.00408163  44 t-inv F
  0.285714 -0.142857  0.000000    0.00408163  45 t-inv F
  0.428571 -0.142857  0.000000    0.00408163  46 t-inv F
 -0.428571 -0.142857  0.000000    0.00408163  47 t-inv F
 -0.285714 -0.142857  0.000000    0.00408163  48 t-inv F
 -0.142857 -0.142857  0.000000    0.00408163  49 t-inv F
  0.000000  0.000000  0.200000    0.00408163  50 t-inv F
  0.142857  0.000000  0.200000    0.00408163  51 t-inv F
  0.285714  0.000000  0.200000    0.00408163  52 t-inv F
  0.428571  0.000000  0.200000    0.00408163  53 t-inv F
 -0.428571  0.000000  0.200000    0.00408163  54 t-inv F
 -0.285714  0.000000  0.200000    0.00408163  55 t-inv F
 -0.142857  0.000000  0.200000    0.00408163  56 t-inv F
  0.000000  0.142857  0.200000    0.00408163  57 t-inv F
  0.142857  0.142857  0.200000    0.00408163  58 t-inv F
  0.285714  0.142857  0.200000    0.00408163  59 t-inv F
  0.428571  0.142857  0.200000    0.00408163  60 t-inv F
 -0.428571  0.142857  0.200000    0.00408163  61 t-inv F
 -0.285714  0.142857  0.200000    0.00408163  62 t-inv F
 -0.142857  0.142857  0.200000    0.00408163  63 t-inv F
  0.000000  0.285714  0.200000    0.00408163  64 t-inv F
  0.142857  0.285714  0.200000    0.00408163  65 t-inv F
  0.285714  0.285714  0.200000    0.00408163  66 t-inv F
  0.428571  0.285714  0.200000    0.00408163  67 t-inv F
 -0.428571  0.285714  0.200000    0.00408163  68 t-inv F
 -0.285714  0.285714  0.200000    0.00408163  69 t-inv F
 -0.142857  0.285714  0.200000    0.00408163  70 t-inv F
  0.000000  0.428571  0.200000    0.00408163  71 t-inv F
  0.142857  0.428571  0.200000    0.00408163  72 t-inv F
  0.285714  0.428571  0.200000    0.00408163  73 t-inv F
  0.428571  0.428571  0.200000    0.00408163  74 t-inv F
 -0.428571  0.428571  0.200000    0.00408163  75 t-inv F
 -0.285714  0.428571  0.200000    0.00408163  76 t-inv F
 -0.142857  0.428571  0.200000    0.00408163  77 t-inv F
  0.000000 -0.428571  0.200000    0.00408163  78 t-inv F
  0.142857 -0.428571  0.200000    0.00408163  79 t-inv F
  0.285714 -0.428571  0.200000    0.00408163  80 t-inv F
  0.428571 -0.428571  0.200000    0.00408163  81 t-inv F
 -0.428571 -0.428571  0.200000    0.00408163  82 t-inv F
 -0.285714 -0.428571  0.200000    0.00408163  83 t-inv F
 -0.142857 -0.428571  0.200000    0.00408163  84 t-inv F
  0.000000 -0.285714  0.200000    0.00408163  85 t-inv F
  0.142857 -0.285714  0.200000    0.00408163  86 t-inv F
  0.285714 -0.285714  0.200000    0.00408163  87 t-inv F
  0.428571 -0.285714  0.200000    0.00408163  88 t-inv F
 -0.428571 -0.285714  0.200000    0.00408163  89 t-inv F
 -0.285714 -0.285714  0.200000    0.00408163  90 t-inv F
 -0.142857 -0.285714  0.200000    0.00408163  91 t-inv F
  0.000000 -0.142857  0.200000    0.00408163  92 t-inv F
  0.142857 -0.142857  0.200000    0.00408163  93 t-inv F
  0.285714 -0.142857  0.200000    0.00408163  94 t-inv F
  0.428571 -0.142857  0.200000    0.00408163  95 t-inv F
 -0.428571 -0.142857  0.200000    0.00408163  96 t-inv F
 -0.285714 -0.142857  0.200000    0.00408163  97 t-inv F
 -0.142857 -0.142857  0.200000    0.00408163  98 t-inv F
  0.000000  0.000000  0.400000    0.00408163  99 t-inv F
  0.142857  0.000000  0.400000    0.00408163 100 t-inv F
  0.285714  0.000000  0.400000    0.00408163 101 t-inv F
  0.428571  0.000000  0.400000    0.00408163 102 t-inv F
 -0.428571  0.000000  0.400000    0.00408163 103 t-inv F
 -0.285714  0.000000  0.400000    0.00408163 104 t-inv F
 -0.142857  0.000000  0.400000    0.00408163 105 t-inv F
  0.000000  0.142857  0.400000    0.00408163 106 t-inv F
  0.142857  0.142857  0.400000    0.00408163 107 t-inv F
  0.285714  0.142857  0.400000    0.00408163 108 t-inv F
  0.428571  0.142857  0.400000    0.00408163 109 t-inv F
 -0.428571  0.142857  0.400000    0.00408163 110 t-inv F
 -0.285714  0.142857  0.400000    0.00408163 111 t-inv F
 -0.142857  0.142857  0.400000    0.00408163 112 t-inv F
  0.000000  0.285714  0.400000    0.00408163 113 t-inv F
  0.142857  0.285714  0.400000    0.00408163 114 t-inv F
  0.285714  0.285714  0.400000    0.00408163 115 t-inv F
  0.428571  0.285714  0.400000    0.00408163 116 t-inv F
 -0.428571  0.285714  0.400000    0.00408163 117 t-inv F
 -0.285714  0.285714  0.400000    0.00408163 118 t-inv F
 -0.142857  0.285714  0.400000    0.00408163 119 t-inv F
  0.000000  0.428571  0.400000    0.00408163 120 t-inv F
  0.142857  0.428571  0.400000    0.00408163 121 t-inv F
  0.285714  0.428571  0.400000    0.00408163 122 t-inv F
  0.428571  0.428571  0.400000    0.00408163 123 t-inv F
 -0.428571  0.428571  0.400000    0.00408163 124 t-inv F
 -0.285714  0.428571  0.400000    0.00408163 125 t-inv F
 -0.142857  0.428571  0.400000    0.00408163 126 t-inv F
  0.000000 -0.428571  0.400000    0.00408163 127 t-inv F
  0.142857 -0.428571  0.400000    0.00408163 128 t-inv F
  0.285714 -0.428571  0.400000    0.00408163 129 t-inv F
  0.428571 -0.428571  0.400000    0.00408163 130 t-inv F
 -0.428571 -0.428571  0.400000    0.00408163 131 t-inv F
 -0.285714 -0.428571  0.400000    0.00408163 132 t-inv F
 -0.142857 -0.428571  0.400000    0.00408163 133 t-inv F
  0.000000 -0.285714  0.400000    0.00408163 134 t-inv F
  0.142857 -0.285714  0.400000    0.00408163 135 t-inv F
  0.285714 -0.285714  0.400000    0.00408163 136 t-inv F
  0.428571 -0.285714  0.400000    0.00408163 137 t-inv F
 -0.428571 -0.285714  0.400000    0.00408163 138 t-inv F
 -0.285714 -0.285714  0.400000    0.00408163 139 t-inv F
 -0.142857 -0.285714  0.400000    0.00408163 140 t-inv F
  0.000000 -0.142857  0.400000    0.00408163 141 t-inv F
  0.142857 -0.142857  0.400000    0.00408163 142 t-inv F
  0.285714 -0.142857  0.400000    0.00408163 143 t-inv F
  0.428571 -0.142857  0.400000    0.00408163 144 t-inv F
 -0.428571 -0.142857  0.400000    0.00408163 145 t-inv F
 -0.285714 -0.142857  0.400000    0.00408163 146 t-inv F
 -0.142857 -0.142857  0.400000    0.00408163 147 t-inv F
  0.000000  0.000000 -0.400000    0.00408163 148 t-inv F
  0.142857  0.000000 -0.400000    0.00408163 149 t-inv F
  0.285714  0.000000 -0.400000    0.00408163 150 t-inv F
  0.428571  0.000000 -0.400000    0.00408163 151 t-inv F
 -0.428571  0.000000 -0.400000    0.00408163 152 t-inv F
 -0.285714  0.000000 -0.400000    0.00408163 153 t-inv F
 -0.142857  0.000000 -0.400000    0.00408163 154 t-inv F
  0.000000  0.142857 -0.400000    0.00408163 155 t-inv F
  0.142857  0.142857 -0.400000    0.00408163 156 t-inv F
  0.285714  0.142857 -0.400000    0.00408163 157 t-inv F
  0.428571  0.142857 -0.400000    0.00408163 158 t-inv F
 -0.428571  0.142857 -0.400000    0.00408163 159 t-inv F
 -0.285714  0.142857 -0.400000    0.00408163 160 t-inv F
 -0.142857  0.142857 -0.400000    0.00408163 161 t-inv F
  0.000000  0.285714 -0.400000    0.00408163 162 t-inv F
  0.142857  0.285714 -0.400000    0.00408163 163 t-inv F
  0.285714  0.285714 -0.400000    0.00408163 164 t-inv F
  0.428571  0.285714 -0.400000    0.00408163 165 t-inv F
 -0.428571  0.285714 -0.400000    0.00408163 166 t-inv F
 -0.285714  0.285714 -0.400000    0.00408163 167 t-inv F
 -0.142857  0.285714 -0.400000    0.00408163 168 t-inv F
  0.000000  0.428571 -0.400000    0.00408163 169 t-inv F
  0.142857  0.428571 -0.400000    0.00408163 170 t-inv F
  0.285714  0.428571 -0.400000    0.00408163 171 t-inv F
  0.428571  0.428571 -0.400000    0.00408163 172 t-inv F
 -0.428571  0.428571 -0.400000    0.00408163 173 t-inv F
 -0.285714  0.428571 -0.400000    0.00408163 174 t-inv F
 -0.142857  0.428571 -0.400000    0.00408163 175 t-inv F
  0.000000 -0.428571 -0.400000    0.00408163 176 t-inv F
  0.142857 -0.428571 -0.400000    0.00408163 177 t-inv F
  0.285714 -0.428571 -0.400000    0.00408163 178 t-inv F
  0.428571 -0.428571 -0.400000    0.00408163 179 t-inv F
 -0.428571 -0.428571 -0.400000    0.00408163 180 t-inv F
 -0.285714 -0.428571 -0.400000    0.00408163 181 t-inv F
 -0.142857 -0.428571 -0.400000    0.00408163 182 t-inv F
  0.000000 -0.285714 -0.400000    0.00408163 183 t-inv F
  0.142857 -0.285714 -0.400000    0.00408163 184 t-inv F
  0.285714 -0.285714 -0.400000    0.00408163 185 t-inv F
  0.428571 -0.285714 -0.400000    0.00408163 186 t-inv F
 -0.428571 -0.285714 -0.400000    0.00408163 187 t-inv F
 -0.285714 -0.285714 -0.400000    0.00408163 188 t-inv F
 -0.142857 -0.285714 -0.400000    0.00408163 189 t-inv F
  0.000000 -0.142857 -0.400000    0.00408163 190 t-inv F
  0.142857 -0.142857 -0.400000    0.00408163 191 t-inv F
  0.285714 -0.142857 -0.400000    0.00408163 192 t-inv F
  0.428571 -0.142857 -0.400000    0.00408163 193 t-inv F
 -0.428571 -0.142857 -0.400000    0.00408163 194 t-inv F
 -0.285714 -0.142857 -0.400000    0.00408163 195 t-inv F
 -0.142857 -0.142857 -0.400000    0.00408163 196 t-inv F
  0.000000  0.000000 -0.200000    0.00408163 197 t-inv F
  0.142857  0.000000 -0.200000    0.00408163 198 t-inv F
  0.285714  0.000000 -0.200000    0.00408163 199 t-inv F
  0.428571  0.000000 -0.200000    0.00408163 200 t-inv F
 -0.428571  0.000000 -0.200000    0.00408163 201 t-inv F
 -0.285714  0.000000 -0.200000    0.00408163 202 t-inv F
 -0.142857  0.000000 -0.200000    0.00408163 203 t-inv F
  0.000000  0.142857 -0.200000    0.00408163 204 t-inv F
  0.142857  0.142857 -0.200000    0.00408163 205 t-inv F
  0.285714  0.142857 -0.200000    0.00408163 206 t-inv F
  0.428571  0.142857 -0.200000    0.00408163 207 t-inv F
 -0.428571  0.142857 -0.200000    0.00408163 208 t-inv F
 -0.285714  0.142857 -0.200000    0.00408163 209 t-inv F
 -0.142857  0.142857 -0.200000    0.00408163 210 t-inv F
  0.000000  0.285714 -0.200000    0.00408163 211 t-inv F
  0.142857  0.285714 -0.200000    0.00408163 212 t-inv F
  0.285714  0.285714 -0.200000    0.00408163 213 t-inv F
  0.428571  0.285714 -0.200000    0.00408163 214 t-inv F
 -0.428571  0.285714 -0.200000    0.00408163 215 t-inv F
 -0.285714  0.285714 -0.200000    0.00408163 216 t-inv F
 -0.142857  0.285714 -0.200000    0.00408163 217 t-inv F
  0.000000  0.428571 -0.200000    0.00408163 218 t-inv F
  0.142857  0.428571 -0.200000    0.00408163 219 t-inv F
  0.285714  0.428571 -0.200000    0.00408163 220 t-inv F
  0.428571  0.428571 -0.200000    0.00408163 221 t-inv F
 -0.428571  0.428571 -0.200000    0.00408163 222 t-inv F
 -0.285714  0.428571 -0.200000    0.00408163 223 t-inv F
 -0.142857  0.428571 -0.200000    0.00408163 224 t-inv F
  0.000000 -0.428571 -0.200000    0.00408163 225 t-inv F
  0.142857 -0.428571 -0.200000    0.00408163 226 t-inv F
  0.285714 -0.428571 -0.200000    0.00408163 227 t-inv F
  0.428571 -0.428571 -0.200000    0.00408163 228 t-inv F
 -0.428571 -0.428571 -0.200000    0.00408163 229 t-inv F
 -0.285714 -0.428571 -0.200000    0.00408163 230 t-inv F
 -0.142857 -0.428571 -0.200000    0.00408163 231 t-inv F
  0.000000 -0.285714 -0.200000    0.00408163 232 t-inv F
  0.142857 -0.285714 -0.200000    0.00408163 233 t-inv F
  0.285714 -0.285714 -0.200000    0.00408163 234 t-inv F
  0.428571 -0.285714 -0.200000    0.00408163 235 t-inv F
 -0.428571 -0.285714 -0.200000    0.00408163 236 t-inv F
 -0.285714 -0.285714 -0.200000    0.00408163 237 t-inv F
 -0.142857 -0.285714 -0.200000    0.00408163 238 t-inv F
  0.000000 -0.142857 -0.200000    0.00408163 239 t-inv F
  0.142857 -0.142857 -0.200000    0.00408163 240 t-inv F
  0.285714 -0.142857 -0.200000    0.00408163 241 t-inv F
  0.428571 -0.142857 -0.200000    0.00408163 242 t-inv F
 -0.428571 -0.142857 -0.200000    0.00408163 243 t-inv F
 -0.285714 -0.142857 -0.200000    0.00408163 244 t-inv F
 -0.142857 -0.142857 -0.200000    0.00408163 245 t-inv F


--------------------------------------------------------------------------------------------------------




 Dimension of arrays:
   k-points           NKPTS =    245   k-points in BZ     NKDIM =    245   number of bands    NBANDS=    128
   number of dos      NEDOS =   2001   number of ions     NIONS =     20
   non local maximal  LDIM  =      6   non local SUM 2l+1 LMDIM =     18
   total plane-waves  NPLWV =  49152
   max r-space proj   IRMAX =      1   max aug-charges    IRDMAX=  17076
   dimension x,y,z NGX =    32 NGY =   32 NGZ =   48
   dimension x,y,z NGXF=    64 NGYF=   64 NGZF=   96
   support grid    NGXF=    64 NGYF=   64 NGZF=   96
   ions per type =               4   4  12
   NGX,Y,Z   is equivalent  to a cutoff of   9.78,  9.82, 10.38 a.u.
   NGXF,Y,Z  is equivalent  to a cutoff of  19.56, 19.63, 20.76 a.u.

 SYSTEM =  PrNiO3                                  
 POSCAR =  PrNiO3                                  

 Startparameter for this run:
   NWRITE =      2    write-flag & timer
   PREC   = normal    normal or accurate (medium, high low for compatibility)
   ISTART =      0    job   : 0-new  1-cont  2-samecut
   ICHARG =      5    charge: 1-file 2-atom 10-const
   ISPIN  =      1    spin polarized calculation?
   LNONCOLLINEAR =      F non collinear calculations
   LSORBIT =      F    spin-orbit coupling
   INIWAV =      1    electr: 0-lowe 1-rand  2-diag
   LASPH  =      F    aspherical Exc in radial PAW
 Electronic Relaxation 1
   ENCUT  =  550.0 eV  40.42 Ry    6.36 a.u.  10.40 10.36 14.70*2*pi/ulx,y,z
   ENINI  =  550.0     initial cutoff
   ENAUG  =  703.4 eV  augmentation charge cutoff
   NELM   =   1000;   NELMIN=***; NELMDL=-12     # of ELM steps 
   EDIFF  = 0.1E-03   stopping-criterion for ELM
   LREAL  =      F    real-space projection
   NLSPLINE    = F    spline interpolate recip. space projectors
   LCOMPAT=      F    compatible to vasp.4.4
   GGA_COMPAT  = T    GGA compatible to vasp.4.4-vasp.4.6
   LMAXPAW     = -100 max onsite density
   LMAXMIX     =    6 max onsite mixed and CHGCAR
   VOSKOWN=      0    Vosko Wilk Nusair interpolation
   ROPT   =    0.00000   0.00000   0.00000
 Ionic relaxation
   EDIFFG = 0.1E-02   stopping-criterion for IOM
   NSW    =      0    number of steps for IOM
   NBLOCK =      1;   KBLOCK =      1    inner block; outer block 
   IBRION =     -1    ionic relax: 0-MD 1-quasi-New 2-CG
   NFREE  =      0    steps in history (QN), initial steepest desc. (CG)
   ISIF   =      2    stress and relaxation
   IWAVPR =     10    prediction:  0-non 1-charg 2-wave 3-comb
   ISYM   =     -1    0-nonsym 1-usesym 2-fastsym
   LCORR  =      T    Harris-Foulkes like correction to forces

   POTIM  = 0.5000    time-step for ionic-motion
   TEIN   =    0.0    initial temperature
   TEBEG  =    0.0;   TEEND  =   0.0 temperature during run
   SMASS  =  -3.00    Nose mass-parameter (am)
   estimated Nose-frequenzy (Omega)   =  0.10E-29 period in steps = 0.13E+47 mass=  -0.676E-27a.u.
   SCALEE = 1.0000    scale energy and forces
   NPACO  =    256;   APACO  = 10.0  distance and # of slots for P.C.
   PSTRESS=    0.0 pullay stress

  Mass of Ions in am
   POMASS = 140.91 58.69 16.00
  Ionic Valenz
   ZVAL   =  11.00 16.00  6.00
  Atomic Wigner-Seitz radii
   RWIGS  =  -1.00 -1.00 -1.00
  virtual crystal weights 
   VCA    =   1.00  1.00  1.00
   NELECT =     180.0000    total number of electrons
   NUPDOWN=      -1.0000    fix difference up-down

 DOS related values:
   EMIN   =  -1.50;   EMAX   =  2.50  energy-range for DOS
   EFERMI =   0.00
   ISMEAR =    -5;   SIGMA  =   0.01  broadening in eV -4-tet -1-fermi 0-gaus

 Electronic relaxation 2 (details)
   IALGO  =     38    algorithm
   LDIAG  =      T    sub-space diagonalisation (order eigenvalues)
   LSUBROT=      F    optimize rotation matrix (better conditioning)
   TURBO    =      0    0=normal 1=particle mesh
   IRESTART =      0    0=no restart 2=restart with 2 vectors
   NREBOOT  =      0    no. of reboots
   NMIN     =      0    reboot dimension
   EREF     =   0.00    reference energy to select bands
   IMIX   =      4    mixing-type and parameters
     AMIX     =   0.40;   BMIX     =  1.00
     AMIX_MAG =   1.60;   BMIX_MAG =  1.00
     AMIN     =   0.10
     WC   =   100.;   INIMIX=   1;  MIXPRE=   1;  MAXMIX= -45

 Intra band minimization:
   WEIMIN = 0.0000     energy-eigenvalue tresh-hold
   EBREAK =  0.20E-06  absolut break condition
   DEPER  =   0.30     relativ break condition  

   TIME   =   0.40     timestep for ELM

  volume/ion in A,a.u.               =      11.33        76.47
  Fermi-wavevector in a.u.,A,eV,Ry     =   1.516078  2.864972 31.272880  2.298492
  Thomas-Fermi vector in A             =   2.625516

 Write flags
   LWAVE        =      T    write WAVECAR
   LDOWNSAMPLE  =      F    k-point downsampling of WAVECAR
   LCHARG       =      T    write CHGCAR
   LVTOT        =      F    write LOCPOT, total local potential
   LVHAR        =      F    write LOCPOT, Hartree potential only
   LELF         =      F    write electronic localiz. function (ELF)
   LORBIT       =     14    0 simple, 1 ext, 2 COOP (PROOUT), +10 PAW based schemes


 Dipole corrections
   LMONO  =      F    monopole corrections only (constant potential shift)
   LDIPOL =      F    correct potential (dipole corrections)
   IDIPOL =      0    1-x, 2-y, 3-z, 4-all directions 
   EPSILON=  1.0000000 bulk dielectric constant

 Exchange correlation treatment:
   GGA     =    --    GGA type
   LEXCH   =     8    internal setting for exchange type
   LIBXC   =     F    Libxc                    
   VOSKOWN =     0    Vosko Wilk Nusair interpolation
   LHFCALC =     F    Hartree Fock is set to
   LHFONE  =     F    Hartree Fock one center treatment
   AEXX    =    0.0000 exact exchange contribution

 Linear response parameters
   LEPSILON=     F    determine dielectric tensor
   LRPA    =     F    only Hartree local field effects (RPA)
   LNABLA  =     F    use nabla operator in PAW spheres
   LVEL    =     F    velocity operator in full k-point grid
   CSHIFT  =0.1000    complex shift for real part using Kramers Kronig
   OMEGAMAX=  -1.0    maximum frequency
   DEG_THRESHOLD= 0.2000000E-02 threshold for treating states as degnerate
   RTIME   =   -0.100 relaxation time in fs
  (WPLASMAI=    0.000 imaginary part of plasma frequency in eV, 0.658/RTIME)
   DFIELD  = 0.0000000 0.0000000 0.0000000 field for delta impulse in time

  Optional k-point grid parameters
   LKPOINTS_OPT  =     F    use optional k-point grid
   KPOINTS_OPT_MODE=     1    mode for optional k-point grid

 Orbital magnetization related:
   ORBITALMAG=     F  switch on orbital magnetization
   LCHIMAG   =     F  perturbation theory with respect to B field
   DQ        =  0.001000  dq finite difference perturbation B field
   LLRAUG    =     F  two centre corrections for induced B field



--------------------------------------------------------------------------------------------------------


 Static calculation
 charge density and potential will be updated during run
 non-spin polarized calculation
 Variant of blocked Davidson
 Davidson routine will perform the subspace rotation
 perform sub-space diagonalisation
    after iterative eigenvector-optimisation
 modified Broyden-mixing scheme, WC =      100.0
 initial mixing is a Kerker type mixing with AMIX =  0.4000 and BMIX =      1.0000
 Hartree-type preconditioning will be used
 using additional bands           38
 reciprocal scheme for non local part
 use partial core corrections
 calculate Harris-corrections to forces   (improved forces if not selfconsistent)
 use gradient corrections 
 use of overlap-Matrix (Vanderbilt PP)
 Fermi weights with tetrahedron method with Bloechl corrections


--------------------------------------------------------------------------------------------------------


  energy-cutoff  :      550.00
  volume of cell :      226.64
      direct lattice vectors                 reciprocal lattice vectors
     5.440290838 -0.000000000  0.000000000     0.183813702 -0.000000000  0.000000000
     0.000000000  5.419716597  0.000000000     0.000000000  0.184511493 -0.000000000
     0.000000000  0.000000000  7.686592486    -0.000000000  0.000000000  0.130096659

  length of vectors
     5.440290838  5.419716597  7.686592486     0.183813702  0.184511493  0.130096659



 k-points in units of 2pi/SCALE and weight: Automatic kpoint scheme                 
   0.00000000  0.00000000  0.00000000       0.004
   0.02625910  0.00000000  0.00000000       0.004
   0.05251820  0.00000000  0.00000000       0.004
   0.07877730  0.00000000  0.00000000       0.004
  -0.07877730  0.00000000  0.00000000       0.004
  -0.05251820  0.00000000  0.00000000       0.004
  -0.02625910  0.00000000  0.00000000       0.004
   0.00000000  0.02635878  0.00000000       0.004
   0.02625910  0.02635878  0.00000000       0.004
   0.05251820  0.02635878  0.00000000       0.004
   0.07877730  0.02635878  0.00000000       0.004
  -0.07877730  0.02635878  0.00000000       0.004
  -0.05251820  0.02635878  0.00000000       0.004
  -0.02625910  0.02635878  0.00000000       0.004
   0.00000000  0.05271757  0.00000000       0.004
   0.02625910  0.05271757  0.00000000       0.004
   0.05251820  0.05271757  0.00000000       0.004
   0.07877730  0.05271757  0.00000000       0.004
  -0.07877730  0.05271757  0.00000000       0.004
  -0.05251820  0.05271757  0.00000000       0.004
  -0.02625910  0.05271757  0.00000000       0.004
   0.00000000  0.07907635  0.00000000       0.004
   0.02625910  0.07907635  0.00000000       0.004
   0.05251820  0.07907635  0.00000000       0.004
   0.07877730  0.07907635  0.00000000       0.004
  -0.07877730  0.07907635  0.00000000       0.004
  -0.05251820  0.07907635  0.00000000       0.004
  -0.02625910  0.07907635  0.00000000       0.004
   0.00000000 -0.07907635  0.00000000       0.004
   0.02625910 -0.07907635  0.00000000       0.004
   0.05251820 -0.07907635  0.00000000       0.004
   0.07877730 -0.07907635  0.00000000       0.004
  -0.07877730 -0.07907635  0.00000000       0.004
  -0.05251820 -0.07907635  0.00000000       0.004
  -0.02625910 -0.07907635  0.00000000       0.004
   0.00000000 -0.05271757  0.00000000       0.004
   0.02625910 -0.05271757  0.00000000       0.004
   0.05251820 -0.05271757  0.00000000       0.004
   0.07877730 -0.05271757  0.00000000       0.004
  -0.07877730 -0.05271757  0.00000000       0.004
  -0.05251820 -0.05271757  0.00000000       0.004
  -0.02625910 -0.05271757  0.00000000       0.004
   0.00000000 -0.02635878  0.00000000       0.004
   0.02625910 -0.02635878  0.00000000       0.004
   0.05251820 -0.02635878  0.00000000       0.004
   0.07877730 -0.02635878  0.00000000       0.004
  -0.07877730 -0.02635878  0.00000000       0.004
  -0.05251820 -0.02635878  0.00000000       0.004
  -0.02625910 -0.02635878  0.00000000       0.004
   0.00000000  0.00000000  0.02601933       0.004
   0.02625910  0.00000000  0.02601933       0.004
   0.05251820  0.00000000  0.02601933       0.004
   0.07877730  0.00000000  0.02601933       0.004
  -0.07877730  0.00000000  0.02601933       0.004
  -0.05251820  0.00000000  0.02601933       0.004
  -0.02625910  0.00000000  0.02601933       0.004
   0.00000000  0.02635878  0.02601933       0.004
   0.02625910  0.02635878  0.02601933       0.004
   0.05251820  0.02635878  0.02601933       0.004
   0.07877730  0.02635878  0.02601933       0.004
  -0.07877730  0.02635878  0.02601933       0.004
  -0.05251820  0.02635878  0.02601933       0.004
  -0.02625910  0.02635878  0.02601933       0.004
   0.00000000  0.05271757  0.02601933       0.004
   0.02625910  0.05271757  0.02601933       0.004
   0.05251820  0.05271757  0.02601933       0.004
   0.07877730  0.05271757  0.02601933       0.004
  -0.07877730  0.05271757  0.02601933       0.004
  -0.05251820  0.05271757  0.02601933       0.004
  -0.02625910  0.05271757  0.02601933       0.004
   0.00000000  0.07907635  0.02601933       0.004
   0.02625910  0.07907635  0.02601933       0.004
   0.05251820  0.07907635  0.02601933       0.004
   0.07877730  0.07907635  0.02601933       0.004
  -0.07877730  0.07907635  0.02601933       0.004
  -0.05251820  0.07907635  0.02601933       0.004
  -0.02625910  0.07907635  0.02601933       0.004
   0.00000000 -0.07907635  0.02601933       0.004
   0.02625910 -0.07907635  0.02601933       0.004
   0.05251820 -0.07907635  0.02601933       0.004
   0.07877730 -0.07907635  0.02601933       0.004
  -0.07877730 -0.07907635  0.02601933       0.004
  -0.05251820 -0.07907635  0.02601933       0.004
  -0.02625910 -0.07907635  0.02601933       0.004
   0.00000000 -0.05271757  0.02601933       0.004
   0.02625910 -0.05271757  0.02601933       0.004
   0.05251820 -0.05271757  0.02601933       0.004
   0.07877730 -0.05271757  0.02601933       0.004
  -0.07877730 -0.05271757  0.02601933       0.004
  -0.05251820 -0.05271757  0.02601933       0.004
  -0.02625910 -0.05271757  0.02601933       0.004
   0.00000000 -0.02635878  0.02601933       0.004
   0.02625910 -0.02635878  0.02601933       0.004
   0.05251820 -0.02635878  0.02601933       0.004
   0.07877730 -0.02635878  0.02601933       0.004
  -0.07877730 -0.02635878  0.02601933       0.004
  -0.05251820 -0.02635878  0.02601933       0.004
  -0.02625910 -0.02635878  0.02601933       0.004
   0.00000000  0.00000000  0.05203866       0.004
   0.02625910  0.00000000  0.05203866       0.004
   0.05251820  0.00000000  0.05203866       0.004
   0.07877730  0.00000000  0.05203866       0.004
  -0.07877730  0.00000000  0.05203866       0.004
  -0.05251820  0.00000000  0.05203866       0.004
  -0.02625910  0.00000000  0.05203866       0.004
   0.00000000  0.02635878  0.05203866       0.004
   0.02625910  0.02635878  0.05203866       0.004
   0.05251820  0.02635878  0.05203866       0.004
   0.07877730  0.02635878  0.05203866       0.004
  -0.07877730  0.02635878  0.05203866       0.004
  -0.05251820  0.02635878  0.05203866       0.004
  -0.02625910  0.02635878  0.05203866       0.004
   0.00000000  0.05271757  0.05203866       0.004
   0.02625910  0.05271757  0.05203866       0.004
   0.05251820  0.05271757  0.05203866       0.004
   0.07877730  0.05271757  0.05203866       0.004
  -0.07877730  0.05271757  0.05203866       0.004
  -0.05251820  0.05271757  0.05203866       0.004
  -0.02625910  0.05271757  0.05203866       0.004
   0.00000000  0.07907635  0.05203866       0.004
   0.02625910  0.07907635  0.05203866       0.004
   0.05251820  0.07907635  0.05203866       0.004
   0.07877730  0.07907635  0.05203866       0.004
  -0.07877730  0.07907635  0.05203866       0.004
  -0.05251820  0.07907635  0.05203866       0.004
  -0.02625910  0.07907635  0.05203866       0.004
   0.00000000 -0.07907635  0.05203866       0.004
   0.02625910 -0.07907635  0.05203866       0.004
   0.05251820 -0.07907635  0.05203866       0.004
   0.07877730 -0.07907635  0.05203866       0.004
  -0.07877730 -0.07907635  0.05203866       0.004
  -0.05251820 -0.07907635  0.05203866       0.004
  -0.02625910 -0.07907635  0.05203866       0.004
   0.00000000 -0.05271757  0.05203866       0.004
   0.02625910 -0.05271757  0.05203866       0.004
   0.05251820 -0.05271757  0.05203866       0.004
   0.07877730 -0.05271757  0.05203866       0.004
  -0.07877730 -0.05271757  0.05203866       0.004
  -0.05251820 -0.05271757  0.05203866       0.004
  -0.02625910 -0.05271757  0.05203866       0.004
   0.00000000 -0.02635878  0.05203866       0.004
   0.02625910 -0.02635878  0.05203866       0.004
   0.05251820 -0.02635878  0.05203866       0.004
   0.07877730 -0.02635878  0.05203866       0.004
  -0.07877730 -0.02635878  0.05203866       0.004
  -0.05251820 -0.02635878  0.05203866       0.004
  -0.02625910 -0.02635878  0.05203866       0.004
   0.00000000  0.00000000 -0.05203866       0.004
   0.02625910  0.00000000 -0.05203866       0.004
   0.05251820  0.00000000 -0.05203866       0.004
   0.07877730  0.00000000 -0.05203866       0.004
  -0.07877730  0.00000000 -0.05203866       0.004
  -0.05251820  0.00000000 -0.05203866       0.004
  -0.02625910  0.00000000 -0.05203866       0.004
   0.00000000  0.02635878 -0.05203866       0.004
   0.02625910  0.02635878 -0.05203866       0.004
   0.05251820  0.02635878 -0.05203866       0.004
   0.07877730  0.02635878 -0.05203866       0.004
  -0.07877730  0.02635878 -0.05203866       0.004
  -0.05251820  0.02635878 -0.05203866       0.004
  -0.02625910  0.02635878 -0.05203866       0.004
   0.00000000  0.05271757 -0.05203866       0.004
   0.02625910  0.05271757 -0.05203866       0.004
   0.05251820  0.05271757 -0.05203866       0.004
   0.07877730  0.05271757 -0.05203866       0.004
  -0.07877730  0.05271757 -0.05203866       0.004
  -0.05251820  0.05271757 -0.05203866       0.004
  -0.02625910  0.05271757 -0.05203866       0.004
   0.00000000  0.07907635 -0.05203866       0.004
   0.02625910  0.07907635 -0.05203866       0.004
   0.05251820  0.07907635 -0.05203866       0.004
   0.07877730  0.07907635 -0.05203866       0.004
  -0.07877730  0.07907635 -0.05203866       0.004
  -0.05251820  0.07907635 -0.05203866       0.004
  -0.02625910  0.07907635 -0.05203866       0.004
   0.00000000 -0.07907635 -0.05203866       0.004
   0.02625910 -0.07907635 -0.05203866       0.004
   0.05251820 -0.07907635 -0.05203866       0.004
   0.07877730 -0.07907635 -0.05203866       0.004
  -0.07877730 -0.07907635 -0.05203866       0.004
  -0.05251820 -0.07907635 -0.05203866       0.004
  -0.02625910 -0.07907635 -0.05203866       0.004
   0.00000000 -0.05271757 -0.05203866       0.004
   0.02625910 -0.05271757 -0.05203866       0.004
   0.05251820 -0.05271757 -0.05203866       0.004
   0.07877730 -0.05271757 -0.05203866       0.004
  -0.07877730 -0.05271757 -0.05203866       0.004
  -0.05251820 -0.05271757 -0.05203866       0.004
  -0.02625910 -0.05271757 -0.05203866       0.004
   0.00000000 -0.02635878 -0.05203866       0.004
   0.02625910 -0.02635878 -0.05203866       0.004
   0.05251820 -0.02635878 -0.05203866       0.004
   0.07877730 -0.02635878 -0.05203866       0.004
  -0.07877730 -0.02635878 -0.05203866       0.004
  -0.05251820 -0.02635878 -0.05203866       0.004
  -0.02625910 -0.02635878 -0.05203866       0.004
   0.00000000  0.00000000 -0.02601933       0.004
   0.02625910  0.00000000 -0.02601933       0.004
   0.05251820  0.00000000 -0.02601933       0.004
   0.07877730  0.00000000 -0.02601933       0.004
  -0.07877730  0.00000000 -0.02601933       0.004
  -0.05251820  0.00000000 -0.02601933       0.004
  -0.02625910  0.00000000 -0.02601933       0.004
   0.00000000  0.02635878 -0.02601933       0.004
   0.02625910  0.02635878 -0.02601933       0.004
   0.05251820  0.02635878 -0.02601933       0.004
   0.07877730  0.02635878 -0.02601933       0.004
  -0.07877730  0.02635878 -0.02601933       0.004
  -0.05251820  0.02635878 -0.02601933       0.004
  -0.02625910  0.02635878 -0.02601933       0.004
   0.00000000  0.05271757 -0.02601933       0.004
   0.02625910  0.05271757 -0.02601933       0.004
   0.05251820  0.05271757 -0.02601933       0.004
   0.07877730  0.05271757 -0.02601933       0.004
  -0.07877730  0.05271757 -0.02601933       0.004
  -0.05251820  0.05271757 -0.02601933       0.004
  -0.02625910  0.05271757 -0.02601933       0.004
   0.00000000  0.07907635 -0.02601933       0.004
   0.02625910  0.07907635 -0.02601933       0.004
   0.05251820  0.07907635 -0.02601933       0.004
   0.07877730  0.07907635 -0.02601933       0.004
  -0.07877730  0.07907635 -0.02601933       0.004
  -0.05251820  0.07907635 -0.02601933       0.004
  -0.02625910  0.07907635 -0.02601933       0.004
   0.00000000 -0.07907635 -0.02601933       0.004
   0.02625910 -0.07907635 -0.02601933       0.004
   0.05251820 -0.07907635 -0.02601933       0.004
   0.07877730 -0.07907635 -0.02601933       0.004
  -0.07877730 -0.07907635 -0.02601933       0.004
  -0.05251820 -0.07907635 -0.02601933       0.004
  -0.02625910 -0.07907635 -0.02601933       0.004
   0.00000000 -0.05271757 -0.02601933       0.004
   0.02625910 -0.05271757 -0.02601933       0.004
   0.05251820 -0.05271757 -0.02601933       0.004
   0.07877730 -0.05271757 -0.02601933       0.004
  -0.07877730 -0.05271757 -0.02601933       0.004
  -0.05251820 -0.05271757 -0.02601933       0.004
  -0.02625910 -0.05271757 -0.02601933       0.004
[...]
 number of electron     180.0674716 magnetization 
 augmentation part       46.8444187 magnetization 

 Broyden mixing:
  rms(total) = 0.45892E+00    rms(broyden)= 0.45892E+00
  rms(prec ) = 0.61044E+00
  weight for this iteration     100.00

 eigenvalues of (default mixing * dielectric matrix)
  average eigenvalue GAMMA=   0.6999
  7.1621  7.1621  1.8116  1.6909  1.6909  1.1137  0.9559  0.9559  0.4902  0.4902
  0.4992  0.4475  0.4475  0.2581  0.2581  0.3602  0.3602  0.3288  0.3288  0.2455
  0.2455  0.1973  0.1973  0.2182  0.1709  0.1709  0.1704  0.1382  0.1382  0.1079
  0.1079  0.1091  0.0606  0.0606  0.0739  0.0522  0.0522  0.0150  0.0012  0.0139
  0.0139  0.0229

 Free energy of the ion-electron system (eV)
  ---------------------------------------------------
  alpha Z        PSCENC =      1340.43062464
  Ewald energy   TEWEN  =    -15631.08598208
  -Hartree energ DENC   =     -6940.93667161
  -exchange      EXHF   =         0.00000000
  -V(xc)+E(xc)   XCENC  =       810.35019056
  PAW double counting   =     22199.76935846   -22717.60812142
  entropy T*S    EENTRO =         0.00000000
  eigenvalues    EBANDS =     -2047.30827681
  atomic energy  EATOM  =     22844.04564258
  Solvation  Ediel_sol  =         0.00000000
  ---------------------------------------------------
  free energy    TOTEN  =      -142.34323568 eV

  energy without entropy =     -142.34323568  energy(sigma->0) =     -142.34323568


--------------------------------------------------------------------------------------------------------




--------------------------------------- Iteration      1(  80)  ---------------------------------------


    POTLOK:  cpu time      0.0093: real time      0.0094
    SETDIJ:  cpu time      0.0034: real time      0.0034
    EDDIAG:  cpu time      0.6374: real time      0.6377
     EDDAV:  cpu time     20.6895: real time     20.7072
 BZINTS: Fermi energy:    4.983714;  180.000000 electrons
         Band energy:-0.204729E+04;  BLOECHL correction:   -0.056868
       DOS:  cpu time      1.1897: real time      1.1901
    CHARGE:  cpu time      1.4071: real time      3.4348
    MIXING:  cpu time      0.0125: real time      0.0125
    --------------------------------------------
      LOOP:  cpu time     23.9489: real time     25.9952

 eigenvalue-minimisations  : 33408
 total energy-change (2. order) : 0.3074050E-03  (-0.6997711E+00)
 number of electron     180.0674716 magnetization 
 augmentation part       46.8437742 magnetization 

 Broyden mixing:
  rms(total) = 0.43171E+00    rms(broyden)= 0.43171E+00
  rms(prec ) = 0.57419E+00
  weight for this iteration     100.00

 eigenvalues of (default mixing * dielectric matrix)
  average eigenvalue GAMMA=   0.7016
  7.3428  7.3428  1.8603  1.6937  1.6937  1.1115  0.9981  0.9981  0.5011  0.5011
  0.4162  0.4162  0.4127  0.4127  0.4104  0.3761  0.3761  0.2676  0.2676  0.2444
  0.2444  0.2038  0.2038  0.2450  0.2045  0.2045  0.0547  0.1580  0.1293  0.1293
  0.1301  0.1033  0.1033  0.0812  0.0002  0.0071  0.0513  0.0513  0.0505  0.0505
  0.0467  0.0467  0.0257

 Free energy of the ion-electron system (eV)
  ---------------------------------------------------
  alpha Z        PSCENC =      1340.43062464
  Ewald energy   TEWEN  =    -15631.08598208
  -Hartree energ DENC   =     -6940.95162022
  -exchange      EXHF   =         0.00000000
  -V(xc)+E(xc)   XCENC  =       810.34928143
  PAW double counting   =     22200.38583082   -22718.22469212
  entropy T*S    EENTRO =         0.00000000
  eigenvalues    EBANDS =     -2047.29201332
  atomic energy  EATOM  =     22844.04564258
  Solvation  Ediel_sol  =         0.00000000
  ---------------------------------------------------
  free energy    TOTEN  =      -142.34292827 eV

  energy without entropy =     -142.34292827  energy(sigma->0) =     -142.34292827


--------------------------------------------------------------------------------------------------------




--------------------------------------- Iteration      1(  81)  ---------------------------------------


    POTLOK:  cpu time      0.0142: real time      0.0142
    SETDIJ:  cpu time      0.0044: real time      0.0044
    EDDIAG:  cpu time      0.6095: real time      0.6099
     EDDAV:  cpu time     20.3601: real time     20.3775
 BZINTS: Fermi energy:    4.983847;  180.000000 electrons
         Band energy:-0.204728E+04;  BLOECHL correction:   -0.056876
       DOS:  cpu time      1.2364: real time      1.2368
    CHARGE:  cpu time      1.4395: real time      3.4628
    MIXING:  cpu time      0.0046: real time      0.0046
    --------------------------------------------
      LOOP:  cpu time     23.6686: real time     25.7102

 eigenvalue-minimisations  : 32448
 total energy-change (2. order) :-0.3327079E-03  (-0.6981194E+00)
 number of electron     180.0674716 magnetization 
 augmentation part       46.8436582 magnetization 

 Broyden mixing:
  rms(total) = 0.37920E+00    rms(broyden)= 0.37919E+00
  rms(prec ) = 0.50393E+00
  weight for this iteration     100.00

 eigenvalues of (default mixing * dielectric matrix)
  average eigenvalue GAMMA=   0.7170
  7.8316  7.8316  1.8736  1.6878  1.6878  1.0054  1.0054  0.8909  0.5259  0.5259
  0.5534  0.5534  0.2935  0.2935  0.3893  0.3893  0.3669  0.3669  0.3749  0.2949
  0.2949  0.2669  0.2669  0.2349  0.2150  0.2150  0.1610  0.1516  0.1516  0.0921
  0.0921  0.0993  0.0993  0.0265  0.0265  0.0038  0.0038  0.0203  0.0590  0.0590
  0.0560  0.0560  0.0876  0.0688

 Free energy of the ion-electron system (eV)
  ---------------------------------------------------
  alpha Z        PSCENC =      1340.43062464
  Ewald energy   TEWEN  =    -15631.08598208
  -Hartree energ DENC   =     -6940.95900000
  -exchange      EXHF   =         0.00000000
  -V(xc)+E(xc)   XCENC  =       810.34937868
  PAW double counting   =     22200.53590173   -22718.37485250
  entropy T*S    EENTRO =         0.00000000
  eigenvalues    EBANDS =     -2047.28497403
  atomic energy  EATOM  =     22844.04564258
  Solvation  Ediel_sol  =         0.00000000
  ---------------------------------------------------
  free energy    TOTEN  =      -142.34326098 eV

  energy without entropy =     -142.34326098  energy(sigma->0) =     -142.34326098


--------------------------------------------------------------------------------------------------------




--------------------------------------- Iteration      1(  82)  ---------------------------------------


    POTLOK:  cpu time      0.0098: real time      0.0106
    SETDIJ:  cpu time      0.0035: real time      0.0035
    EDDIAG:  cpu time      0.5999: real time      0.6002
     EDDAV:  cpu time     19.8606: real time     19.8764
 BZINTS: Fermi energy:    4.984496;  180.000000 electrons
         Band energy:-0.204724E+04;  BLOECHL correction:   -0.056877
       DOS:  cpu time      1.0926: real time      1.0930
    CHARGE:  cpu time      1.5538: real time      3.5733
    MIXING:  cpu time      0.0045: real time      0.0045
    --------------------------------------------
      LOOP:  cpu time     23.1247: real time     25.1615

 eigenvalue-minimisations  : 32416
 total energy-change (2. order) :-0.8180858E-03  (-0.6967329E+00)
 number of electron     180.0674716 magnetization 
 augmentation part       46.8427328 magnetization 

 Broyden mixing:
  rms(total) = 0.46029E+00    rms(broyden)= 0.46026E+00
  rms(prec ) = 0.61174E+00
  weight for this iteration     100.00

 eigenvalues of (default mixing * dielectric matrix)
  average eigenvalue GAMMA=   0.4893
  2.9485  2.1490  1.9760  1.9760  1.1689  1.1689  0.8505  0.5323  0.5323  0.5484
  0.5484  0.4337  0.4337  0.3883  0.3459  0.3459  0.2688  0.2688  0.2733  0.2733
  0.2790  0.2790  0.1956  0.1956  0.2145  0.1453  0.1226  0.1226  0.0541  0.0541
  0.0980  0.0980  0.0987  0.0019  0.0212  0.0212  0.0361  0.0361  0.0396  0.0273

 Free energy of the ion-electron system (eV)
  ---------------------------------------------------
  alpha Z        PSCENC =      1340.43062464
  Ewald energy   TEWEN  =    -15631.08598208
  -Hartree energ DENC   =     -6941.00937393
  -exchange      EXHF   =         0.00000000
  -V(xc)+E(xc)   XCENC  =       810.35049977
  PAW double counting   =     22201.10873151   -22718.94635720
  entropy T*S    EENTRO =         0.00000000
  eigenvalues    EBANDS =     -2047.23786435
  atomic energy  EATOM  =     22844.04564258
  Solvation  Ediel_sol  =         0.00000000
  ---------------------------------------------------
  free energy    TOTEN  =      -142.34407906 eV

  energy without entropy =     -142.34407906  energy(sigma->0) =     -142.34407906


--------------------------------------------------------------------------------------------------------




--------------------------------------- Iteration      1(  83)  ---------------------------------------


    POTLOK:  cpu time      0.0095: real time      0.0095
    SETDIJ:  cpu time      0.0032: real time      0.0032
    EDDIAG:  cpu time      0.6046: real time      0.6050
     EDDAV:  cpu time     20.9904: real time     21.0086
 BZINTS: Fermi energy:    4.983862;  180.000000 electrons
         Band energy:-0.204724E+04;  BLOECHL correction:   -0.056837
       DOS:  cpu time      1.2511: real time      1.2516
    CHARGE:  cpu time      1.4127: real time      3.4282
    MIXING:  cpu time      0.0043: real time      0.0043
    --------------------------------------------
      LOOP:  cpu time     24.2758: real time     26.3103

 eigenvalue-minimisations  : 34720
 total energy-change (2. order) :-0.2418095E-02  (-0.6972263E+00)
 number of electron     180.0674716 magnetization 
 augmentation part       46.8430853 magnetization 

 Broyden mixing:
  rms(total) = 0.43370E+00    rms(broyden)= 0.43369E+00
  rms(prec ) = 0.57670E+00
  weight for this iteration     100.00

 eigenvalues of (default mixing * dielectric matrix)
  average eigenvalue GAMMA=   0.4968
  3.2598  2.1074  1.8757  1.8757  1.2589  1.2589  0.9046  0.6218  0.6218  0.5191
  0.5191  0.4400  0.4400  0.3713  0.3713  0.3781  0.3456  0.3456  0.2413  0.2413
  0.2943  0.2422  0.2422  0.2154  0.1986  0.1986  0.1437  0.1213  0.1213  0.0779
  0.0779  0.0930  0.0930  0.0890  0.0281  0.0281  0.0017  0.0158  0.0158  0.0374
  0.0374

 Free energy of the ion-electron system (eV)
  ---------------------------------------------------
  alpha Z        PSCENC =      1340.43062464
  Ewald energy   TEWEN  =    -15631.08598208
  -Hartree energ DENC   =     -6940.98202798
  -exchange      EXHF   =         0.00000000
  -V(xc)+E(xc)   XCENC  =       810.34879688
  PAW double counting   =     22202.66353313   -22720.52934430
  entropy T*S    EENTRO =         0.00000000
  eigenvalues    EBANDS =     -2047.23774003
  atomic energy  EATOM  =     22844.04564258
  Solvation  Ediel_sol  =         0.00000000
  ---------------------------------------------------
  free energy    TOTEN  =      -142.34649716 eV

  energy without entropy =     -142.34649716  energy(sigma->0) =     -142.34649716


--------------------------------------------------------------------------------------------------------




--------------------------------------- Iteration      1(  84)  ---------------------------------------


    POTLOK:  cpu time      0.0095: real time      0.0095
    SETDIJ:  cpu time      0.0034: real time      0.0034
    EDDIAG:  cpu time      0.6044: real time      0.6048
     EDDAV:  cpu time     20.0815: real time     20.0987
 BZINTS: Fermi energy:    4.983826;  180.000000 electrons
         Band energy:-0.204725E+04;  BLOECHL correction:   -0.056854
       DOS:  cpu time      1.2323: real time      1.2327
    CHARGE:  cpu time      1.4232: real time      3.4502
    MIXING:  cpu time      0.0043: real time      0.0043
    --------------------------------------------
      LOOP:  cpu time     23.3585: real time     25.4036

 eigenvalue-minimisations  : 32320
 total energy-change (2. order) : 0.1527009E-03  (-0.6882121E+00)
 number of electron     180.0674716 magnetization 
 augmentation part       46.8429622 magnetization 

 Broyden mixing:
  rms(total) = 0.47963E+00    rms(broyden)= 0.47963E+00
  rms(prec ) = 0.63892E+00
  weight for this iteration     100.00

 eigenvalues of (default mixing * dielectric matrix)
  average eigenvalue GAMMA=   0.4970
  3.0026  2.2886  2.0105  2.0105  1.2615  1.2615  0.9156  0.6248  0.6248  0.4584
  0.4584  0.5169  0.5169  0.4915  0.3414  0.3414  0.3728  0.3379  0.3379  0.2308
  0.2308  0.2287  0.2287  0.2414  0.1790  0.1790  0.1919  0.1919  0.1196  0.1196
  0.1058  0.1058  0.0816  0.0264  0.0264  0.0018  0.0354  0.0354  0.0161  0.0493
  0.0493  0.0270

 Free energy of the ion-electron system (eV)
  ---------------------------------------------------
  alpha Z        PSCENC =      1340.43062464
  Ewald energy   TEWEN  =    -15631.08598208
  -Hartree energ DENC   =     -6940.96945117
  -exchange      EXHF   =         0.00000000
  -V(xc)+E(xc)   XCENC  =       810.34833120
  PAW double counting   =     22202.67574640   -22720.54171952
  entropy T*S    EENTRO =         0.00000000
  eigenvalues    EBANDS =     -2047.24953651
  atomic energy  EATOM  =     22844.04564258
  Solvation  Ediel_sol  =         0.00000000
  ---------------------------------------------------
  free energy    TOTEN  =      -142.34634446 eV

  energy without entropy =     -142.34634446  energy(sigma->0) =     -142.34634446


--------------------------------------------------------------------------------------------------------




--------------------------------------- Iteration      1(  85)  ---------------------------------------


    POTLOK:  cpu time      0.0094: real time      0.0094
    SETDIJ:  cpu time      0.0033: real time      0.0033
    EDDIAG:  cpu time      0.6046: real time      0.6050
     EDDAV:  cpu time     19.6895: real time     19.7068
 BZINTS: Fermi energy:    4.984398;  180.000000 electrons
         Band energy:-0.204721E+04;  BLOECHL correction:   -0.056877
       DOS:  cpu time      1.2368: real time      1.2372
    CHARGE:  cpu time      1.4678: real time      3.5004
    MIXING:  cpu time      0.0045: real time      0.0045
    --------------------------------------------
      LOOP:  cpu time     23.0158: real time     25.0666

 eigenvalue-minimisations  : 32032
 total energy-change (2. order) : 0.9594624E-03  (-0.6882424E+00)
 number of electron     180.0674716 magnetization 
 augmentation part       46.8423437 magnetization 

 Broyden mixing:
  rms(total) = 0.47484E+00    rms(broyden)= 0.47484E+00
  rms(prec ) = 0.63273E+00
  weight for this iteration     100.00

 eigenvalues of (default mixing * dielectric matrix)
  average eigenvalue GAMMA=   0.4997
  3.1602  2.2956  1.9575  1.9575  1.2527  1.2527  0.7694  0.7694  0.8477  0.6531
  0.6531  0.4305  0.4305  0.3763  0.3763  0.2465  0.2465  0.3672  0.3309  0.3309
  0.3340  0.2527  0.2527  0.2420  0.2015  0.2015  0.1742  0.1742  0.1448  0.1448
  0.0692  0.0692  0.1031  0.1031  0.0869  0.0700  0.0016  0.0128  0.0128  0.0364
  0.0364  0.0313  0.0256

 Free energy of the ion-electron system (eV)
  ---------------------------------------------------
  alpha Z        PSCENC =      1340.43062464
  Ewald energy   TEWEN  =    -15631.08598208
  -Hartree energ DENC   =     -6941.01316550
  -exchange      EXHF   =         0.00000000
  -V(xc)+E(xc)   XCENC  =       810.34974358
  PAW double counting   =     22203.02577125   -22720.88917885
  entropy T*S    EENTRO =         0.00000000
  eigenvalues    EBANDS =     -2047.20884063
  atomic energy  EATOM  =     22844.04564258
  Solvation  Ediel_sol  =         0.00000000
  ---------------------------------------------------
  free energy    TOTEN  =      -142.34538499 eV

  energy without entropy =     -142.34538499  energy(sigma->0) =     -142.34538499


--------------------------------------------------------------------------------------------------------




--------------------------------------- Iteration      1(  86)  ---------------------------------------


    POTLOK:  cpu time      0.0209: real time      0.0210
    SETDIJ:  cpu time      0.0038: real time      0.0038
    EDDIAG:  cpu time      0.6096: real time      0.6099
     EDDAV:  cpu time     20.0016: real time     20.0183
 BZINTS: Fermi energy:    4.984544;  180.000000 electrons
         Band energy:-0.204720E+04;  BLOECHL correction:   -0.056881
       DOS:  cpu time      1.2353: real time      1.2357
    CHARGE:  cpu time      1.4004: real time      3.4268
    MIXING:  cpu time      0.0042: real time      0.0042
    --------------------------------------------
      LOOP:  cpu time     23.2758: real time     25.3197

 eigenvalue-minimisations  : 32032
 total energy-change (2. order) :-0.5844407E-04  (-0.6856425E+00)
 number of electron     180.0674716 magnetization 
 augmentation part       46.8421156 magnetization 

 Broyden mixing:
  rms(total) = 0.44426E+00    rms(broyden)= 0.44425E+00
  rms(prec ) = 0.59119E+00
  weight for this iteration     100.00

 eigenvalues of (default mixing * dielectric matrix)
  average eigenvalue GAMMA=   0.5001
  3.2715  2.2789  2.0597  2.0597  1.2614  1.2614  0.9124  0.5643  0.5643  0.6270
  0.6270  0.5240  0.5240  0.3961  0.3961  0.3822  0.3822  0.2517  0.2517  0.3397
  0.3397  0.3494  0.3099  0.2415  0.1969  0.1969  0.2079  0.2079  0.1519  0.1519
  0.0791  0.0791  0.1088  0.1088  0.0653  0.0653  0.0492  0.0492  0.0016  0.0137
  0.0137  0.0292  0.0292  0.0246

 Free energy of the ion-electron system (eV)
  ---------------------------------------------------
  alpha Z        PSCENC =      1340.43062464
  Ewald energy   TEWEN  =    -15631.08598208
  -Hartree energ DENC   =     -6941.02433600
  -exchange      EXHF   =         0.00000000
  -V(xc)+E(xc)   XCENC  =       810.34981562
  PAW double counting   =     22203.23124121   -22721.09431257
  entropy T*S    EENTRO =         0.00000000
  eigenvalues    EBANDS =     -2047.19813685
  atomic energy  EATOM  =     22844.04564258
  Solvation  Ediel_sol  =         0.00000000
  ---------------------------------------------------
  free energy    TOTEN  =      -142.34544344 eV

  energy without entropy =     -142.34544344  energy(sigma->0) =     -142.34544344


--------------------------------------------------------------------------------------------------------




--------------------------------------- Iteration      1(  87)  ---------------------------------------


    POTLOK:  cpu time      0.0091: real time      0.0091
    SETDIJ:  cpu time      0.0034: real time      0.0034
    EDDIAG:  cpu time      0.6025: real time      0.6028
     EDDAV:  cpu time     19.9688: real time     19.9841
 BZINTS: Fermi energy:    4.985251;  180.000000 electrons
         Band energy:-0.204715E+04;  BLOECHL correction:   -0.056915
       DOS:  cpu time      1.1930: real time      1.1934

 optimized coefficients for linear combined projectors, energy window      -1.50      2.50
 species Pr NT=   1 L=   0     0.329    -0.364
 species Pr NT=   1 L=   1     0.834    -0.552
 species Pr NT=   1 L=   2     0.732     0.918
 species Ni NT=   2 L=   1     0.111    -0.851
 species Ni NT=   2 L=   2     0.950     0.980
 species Ni NT=   2 L=   0     0.493     0.938
 species O  NT=   3 L=   0     0.892    -0.996
 species O  NT=   3 L=   1     0.851    -0.932



 total charge

# of ion       s       p       d       tot
------------------------------------------
    1        2.059   5.838   0.701   8.598
    2        2.060   5.838   0.701   8.598
    3        2.059   5.838   0.701   8.598
    4        2.059   5.838   0.701   8.598
    5        0.245   6.245   7.962  14.452
    6        0.265   6.285   7.783  14.333
    7        0.265   6.285   7.784  14.334
    8        0.245   6.245   7.960  14.450
    9        1.562   3.423   0.000   4.985
   10        1.562   3.423   0.000   4.985
   11        1.562   3.423   0.000   4.986
   12        1.562   3.422   0.000   4.985
   13        1.563   3.425   0.000   4.987
   14        1.563   3.424   0.000   4.986
   15        1.563   3.424   0.000   4.986
