 vasp.6.4.2 20Jul23 (build Oct 20 2023 10:24:29) complex                         
 executed on             LinuxGNU date 2023.10.23  08:12:14
 running    1 mpi-ranks, with   16 threads/rank, on    1 nodes
 distrk:  each k-point on    1 cores,    1 groups
 distr:  one band on NCORE=   1 cores,    1 groups


--------------------------------------------------------------------------------------------------------


 INCAR:
   SYSTEM = PrNiO3
   ICHARG = 5
   ISYM = -1
   NELM = 1000
   NELMIN = 1000
   NELMDL = -1
   IMIX = 1
   AMIX = 0.04
   BMIX = 0.3
   IALGO = 38
   ISMEAR = -5
   LMAXMIX = 6
   LORBIT = 14
   NEDOS = 2001
   EMIN = 1.0
   EMAX = 10.0
   LOCPROJ = 5 6 7 8 : d : Pr 1

 POTCAR:    PAW_PBE Pr_3 07Sep2000                
 POTCAR:    PAW_PBE Ni_pv 06Sep2000               
 POTCAR:    PAW_PBE O 08Apr2002                   
 POTCAR:    PAW_PBE Pr_3 07Sep2000                
   VRHFIN =Pr : [core=Xe4]                                                                          
   LEXCH  = PE                                                                                      
   EATOM  =   912.8502 eV,   67.0926 Ry                                                             
                                                                                                    
   TITEL  = PAW_PBE Pr_3 07Sep2000                                                                  
   LULTRA =        F    use ultrasoft PP ?                                                          
   IUNSCR =        1    unscreen: 0-lin 1-nonlin 2-no                                               
   RPACOR =    2.400    partial core radius                                                         
   POMASS =  140.907; ZVAL   =   11.000    mass and valenz                                          
   RCORE  =    2.800    outmost cutoff radius                                                       
   RWIGS  =    3.100; RWIGS  =    1.640    wigner-seitz radius (au A)                               
   ENMAX  =  181.719; ENMIN  =  136.289 eV                                                          
   RCLOC  =    2.419    cutoff for local pot                                                        
   LCOR   =        T    correct aug charges                                                         
   LPAW   =        T    paw PP                                                                      
   EAUG   =  303.718                                                                                
   DEXC   =    0.000                                                                                
   RMAX   =    2.867    core radius for proj-oper                                                   
   RAUG   =    1.300    factor for augmentation sphere                                              
   RDEP   =    2.816    radius for radial grids                                                     
   RDEPT  =    2.395    core radius for aug-charge                                                  
                                                                                                    
   Atomic configuration                                                                             
   14 entries                                                                                       
     n  l   j            E        occ.                                                              
     1  0  0.50    -41810.3934   2.0000                                                             
     2  0  0.50     -6731.1418   2.0000                                                             
     2  1  1.50     -6022.4876   6.0000                                                             
     3  0  0.50     -1458.2043   2.0000                                                             
     3  1  1.50     -1233.8862   6.0000                                                             
     3  2  2.50      -919.2566  10.0000                                                             
     4  0  0.50      -295.2681   2.0000                                                             
     4  1  1.50      -221.8430   6.0000                                                             
     4  2  2.50      -116.8418  10.0000                                                             
     4  3  2.50        -6.2311   2.0000                                                             
     5  0  0.50       -42.1589   2.0000                                                             
     6  0  0.50        -3.8068   2.0000                                                             
     5  1  1.50       -23.9655   6.0000                                                             
     5  2  2.50        -3.0008   1.0000                                                             
   Description                                                                                      
     l       E           TYP  RCUT    TYP  RCUT                                                     
     0    -42.1589422     23  2.800                                                                 
     0     -3.8068346     23  2.800                                                                 
     1    -23.9655307     23  2.800                                                                 
     1     13.6058260     23  2.800                                                                 
     2     -3.0008139     23  2.800                                                                 
     2     -0.1733532     23  2.800                                                                 
  local pseudopotential read in
  partial core-charges read in
  partial kinetic energy density read in
  atomic valenz-charges read in
  non local Contribution for L=           0  read in
    real space projection operators read in
  non local Contribution for L=           0  read in
    real space projection operators read in
  non local Contribution for L=           1  read in
    real space projection operators read in
  non local Contribution for L=           1  read in
    real space projection operators read in
  non local Contribution for L=           2  read in
    real space projection operators read in
  non local Contribution for L=           2  read in
    real space projection operators read in
    PAW grid and wavefunctions read in

   number of l-projection  operators is LMAX  =           6
   number of lm-projection operators is LMMAX =          18

 POTCAR:    PAW_PBE Ni_pv 06Sep2000               
   VRHFIN =Ni:                                                                                      
   LEXCH  = PE                                                                                      
   EATOM  =  3501.1230 eV,  257.3253 Ry                                                             
                                                                                                    
   TITEL  = PAW_PBE Ni_pv 06Sep2000                                                                 
   LULTRA =        F    use ultrasoft PP ?                                                          
   IUNSCR =        1    unscreen: 0-lin 1-nonlin 2-no                                               
   RPACOR =    1.500    partial core radius                                                         
   POMASS =   58.690; ZVAL   =   16.000    mass and valenz                                          
   RCORE  =    2.000    outmost cutoff radius                                                       
   RWIGS  =    2.000; RWIGS  =    1.058    wigner-seitz radius (au A)                               
   ENMAX  =  367.986; ENMIN  =  275.989 eV                                                          
   RCLOC  =    1.301    cutoff for local pot                                                        
   LCOR   =        T    correct aug charges                                                         
   LPAW   =        T    paw PP                                                                      
   EAUG   =  703.443                                                                                
   DEXC   =    0.000                                                                                
   RMAX   =    2.041    core radius for proj-oper                                                   
   RAUG   =    1.300    factor for augmentation sphere                                              
   RDEP   =    2.103    radius for radial grids                                                     
   RDEPT  =    1.618    core radius for aug-charge                                                  
                                                                                                    
   Atomic configuration                                                                             
    8 entries                                                                                       
     n  l   j            E        occ.                                                              
     1  0  0.50     -8206.4253   2.0000                                                             
     2  0  0.50      -976.1748   2.0000                                                             
     2  1  1.50      -839.0571   6.0000                                                             
     3  0  0.50      -105.9991   2.0000                                                             
     3  1  1.50       -66.4603   6.0000                                                             
     3  2  2.50        -4.6458   9.0000                                                             
     4  0  0.50        -4.4926   1.0000                                                             
     4  3  2.50        -1.3606   0.0000                                                             
   Description                                                                                      
     l       E           TYP  RCUT    TYP  RCUT                                                     
     1    -66.4602962     23  1.700                                                                 
     1     -1.3605826     23  1.700                                                                 
     2     -4.6457867     23  2.000                                                                 
     2     -6.0063693     23  2.000                                                                 
     0     -4.4925576     23  1.900                                                                 
     0     16.3626226     23  1.900                                                                 
  local pseudopotential read in
  partial core-charges read in
  partial kinetic energy density read in
  atomic valenz-charges read in
  non local Contribution for L=           1  read in
    real space projection operators read in
  non local Contribution for L=           1  read in
    real space projection operators read in
  non local Contribution for L=           2  read in
    real space projection operators read in
  non local Contribution for L=           2  read in
    real space projection operators read in
  non local Contribution for L=           0  read in
    real space projection operators read in
  non local Contribution for L=           0  read in
    real space projection operators read in
    PAW grid and wavefunctions read in

   number of l-projection  operators is LMAX  =           6
   number of lm-projection operators is LMMAX =          18

 POTCAR:    PAW_PBE O 08Apr2002                   
   VRHFIN =O: s2p4                                                                                  
   LEXCH  = PE                                                                                      
   EATOM  =   432.3788 eV,   31.7789 Ry                                                             
                                                                                                    
   TITEL  = PAW_PBE O 08Apr2002                                                                     
   LULTRA =        F    use ultrasoft PP ?                                                          
   IUNSCR =        1    unscreen: 0-lin 1-nonlin 2-no                                               
   RPACOR =    1.200    partial core radius                                                         
   POMASS =   16.000; ZVAL   =    6.000    mass and valenz                                          
   RCORE  =    1.520    outmost cutoff radius                                                       
   RWIGS  =    1.550; RWIGS  =    0.820    wigner-seitz radius (au A)                               
   ENMAX  =  400.000; ENMIN  =  300.000 eV                                                          
   ICORE  =        2    local potential                                                             
   LCOR   =        T    correct aug charges                                                         
   LPAW   =        T    paw PP                                                                      
   EAUG   =  605.392                                                                                
   DEXC   =    0.000                                                                                
   RMAX   =    1.553    core radius for proj-oper                                                   
   RAUG   =    1.300    factor for augmentation sphere                                              
   RDEP   =    1.550    radius for radial grids                                                     
   RDEPT  =    1.329    core radius for aug-charge                                                  
                                                                                                    
   Atomic configuration                                                                             
    4 entries                                                                                       
     n  l   j            E        occ.                                                              
     1  0  0.50      -514.6923   2.0000                                                             
     2  0  0.50       -23.9615   2.0000                                                             
     2  1  0.50        -9.0305   4.0000                                                             
     3  2  1.50        -9.5241   0.0000                                                             
   Description                                                                                      
     l       E           TYP  RCUT    TYP  RCUT                                                     
     0    -23.9615318     23  1.200                                                                 
     0     -9.5240782     23  1.200                                                                 
     1     -9.0304911     23  1.520                                                                 
     1      8.1634956     23  1.520                                                                 
     2     -9.5240782      7  1.500                                                                 
  local pseudopotential read in
  partial core-charges read in
  partial kinetic energy density read in
  kinetic energy density of atom read in
  atomic valenz-charges read in
  non local Contribution for L=           0  read in
    real space projection operators read in
  non local Contribution for L=           0  read in
    real space projection operators read in
  non local Contribution for L=           1  read in
    real space projection operators read in
  non local Contribution for L=           1  read in
    real space projection operators read in
    PAW grid and wavefunctions read in

   number of l-projection  operators is LMAX  =           4
   number of lm-projection operators is LMMAX =           8

 -----------------------------------------------------------------------------
|                                                                             |
|               ----> ADVICE to this user running VASP <----                  |
|                                                                             |
|     You have a (more or less) 'large supercell' and for larger cells it     |
|     might be more efficient to use real-space projection operators.         |
|     Therefore, try LREAL= Auto in the INCAR file.                           |
|     Mind: For very accurate calculation, you might also keep the            |
|     reciprocal projection scheme (i.e. LREAL=.FALSE.).                      |
|                                                                             |
 -----------------------------------------------------------------------------

  PAW_PBE Pr_3 07Sep2000                :
 energy of atom  1       EATOM= -912.8502
 kinetic energy error for atom=    0.0014 (will be added to EATOM!!)
  PAW_PBE Ni_pv 06Sep2000               :
 energy of atom  2       EATOM=-3501.1230
 kinetic energy error for atom=    0.1021 (will be added to EATOM!!)
  PAW_PBE O 08Apr2002                   :
 energy of atom  3       EATOM= -432.3788
 kinetic energy error for atom=    0.1156 (will be added to EATOM!!)


 POSCAR: PrNiO3
  positions in direct lattice
  No initial velocities read in
 exchange correlation table for  LEXCH =        8
   RHO(1)=    0.500       N(1)  =     2000
   RHO(2)=  100.500       N(2)  =     4000



--------------------------------------------------------------------------------------------------------


 ion  position               nearest neighbor table
   1  0.993  0.036  0.250-  20 2.40  16 2.44  15 2.44  18 2.51   9 2.56  10 2.57  13 2.73  14 2.73
                             6 3.17   8 3.17   4 3.78   4 3.78   2 3.86   2 3.86   4 3.90   4 3.90
   2  0.007  0.964  0.750-  17 2.40  14 2.44  13 2.44  19 2.51  11 2.56  12 2.57  15 2.73  16 2.73
                             6 3.17   8 3.17   3 3.78   3 3.78   1 3.86   1 3.86   3 3.90   3 3.90
   3  0.493  0.464  0.750-  19 2.40  11 2.44  12 2.44  17 2.51  14 2.56  13 2.57  10 2.73   9 2.73
                             5 3.17   7 3.17   2 3.78   2 3.78   4 3.86   4 3.86   2 3.90   2 3.90
   4  0.507  0.536  0.250-  18 2.40   9 2.44  10 2.44  20 2.51  16 2.56  15 2.57  12 2.73  11 2.73
                             5 3.17   7 3.17   1 3.78   1 3.78   3 3.86   3 3.86   1 3.90   1 3.90
   5  0.500  0.000  0.000-  13 1.98  15 1.98  11 1.98   9 1.98  17 1.98  20 1.98   3 3.17   4 3.17

   6  0.000  0.500  0.000-   9 1.93  11 1.93  15 1.93  13 1.93  19 1.93  18 1.93   1 3.17   2 3.17

   7  0.500  0.000  0.500-  14 1.93  16 1.93  12 1.93  10 1.93  17 1.93  20 1.93   3 3.17   4 3.17

   8  0.000  0.500  0.500-  10 1.98  12 1.98  16 1.98  14 1.98  19 1.98  18 1.98   1 3.17   2 3.17

   9  0.724  0.283  0.038-   6 1.93   5 1.98   4 2.44   1 2.56   3 2.73
  10  0.718  0.276  0.462-   7 1.93   8 1.98   4 2.44   1 2.57   3 2.73
  11  0.276  0.717  0.962-   6 1.93   5 1.98   3 2.44   2 2.56   4 2.73
  12  0.282  0.724  0.538-   7 1.93   8 1.98   3 2.44   2 2.57   4 2.73
  13  0.218  0.224  0.962-   6 1.93   5 1.98   2 2.44   3 2.57   1 2.73
  14  0.224  0.217  0.538-   7 1.93   8 1.98   2 2.44   3 2.56   1 2.73
  15  0.782  0.776  0.038-   6 1.93   5 1.98   1 2.44   4 2.57   2 2.73
  16  0.776  0.783  0.462-   7 1.93   8 1.98   1 2.44   4 2.56   2 2.73
  17  0.568  0.006  0.747-   7 1.93   5 1.98   2 2.40   3 2.51
  18  0.068  0.494  0.247-   6 1.93   8 1.98   4 2.40   1 2.51
  19  0.932  0.506  0.753-   6 1.93   8 1.98   3 2.40   2 2.51
  20  0.432  0.994  0.253-   7 1.93   5 1.98   1 2.40   4 2.51


IMPORTANT INFORMATION: All symmetrisations will be switched off!
NOSYMM: (Re-)initialisation of all symmetry stuff for point group C_1.


----------------------------------------------------------------------------------------

                                     Primitive cell                                     

  volume of cell :     226.6379

  direct lattice vectors                    reciprocal lattice vectors
     5.440290838 -0.000000000  0.000000000     0.183813702 -0.000000000  0.000000000
     0.000000000  5.419716597  0.000000000     0.000000000  0.184511493 -0.000000000
     0.000000000  0.000000000  7.686592486    -0.000000000  0.000000000  0.130096659

  length of vectors
     5.440290838  5.419716597  7.686592486     0.183813702  0.184511493  0.130096659

  position of ions in fractional coordinates (direct lattice)
     0.992500481  0.036009512  0.250000000
     0.007499519  0.963990488  0.750000000
     0.492500481  0.463990488  0.750000000
     0.507499519  0.536009512  0.250000000
     0.500000000  0.000000000  0.000000000
     1.000000000  0.500000000  0.000000000
     0.500000000  0.000000000  0.500000000
     1.000000000  0.500000000  0.500000000
     0.724459684  0.282999785  0.037941946
     0.717695326  0.276235427  0.462058051
     0.275540316  0.717000245  0.962058080
     0.282304674  0.723764603  0.537941920
     0.217695326  0.223764573  0.962058080
     0.224459684  0.217000215  0.537941920
     0.782304674  0.776235397  0.037941946
     0.775540316  0.782999755  0.462058051
     0.568297090  0.006306752  0.746617821
     0.068297119  0.493693248  0.246617821
     0.931702910  0.506306782  0.753382179
     0.431702881  0.993693218  0.253382179

  ion indices of the primitive-cell ions
   primitive index   ion index
                 1           1
                 2           2
                 3           3
                 4           4
                 5           5
                 6           6
                 7           7
                 8           8
                 9           9
                10          10
                11          11
                12          12
                13          13
                14          14
                15          15
                16          16
                17          17
                18          18
                19          19
                20          20

----------------------------------------------------------------------------------------



 KPOINTS: Automatic kpoint scheme                 

Automatic generation of k-mesh.
 Grid dimensions read from file:
 generate k-points for:    6    6    4

 Generating k-lattice:

  Cartesian coordinates                     Fractional coordinates (reciprocal lattice)
     0.030635617 -0.000000000  0.000000000     0.166666667  0.000000000  0.000000000
     0.000000000  0.030751915 -0.000000000     0.000000000  0.166666667  0.000000000
    -0.000000000  0.000000000  0.032524165     0.000000000  0.000000000  0.250000000

  Length of vectors
     0.030635617  0.030751915  0.032524165

  Shift w.r.t. Gamma in fractional coordinates (k-lattice)
     0.500000000  0.500000000  0.500000000

 TETIRR: Found    864 inequivalent tetrahedra from      864
 
 Subroutine IBZKPT returns following result:
 ===========================================
 
 Found    144 irreducible k-points:
 
 Following reciprocal coordinates:
            Coordinates               Weight
  0.083333  0.083333  0.125000      1.000000
  0.250000  0.083333  0.125000      1.000000
  0.416667  0.083333  0.125000      1.000000
 -0.416667  0.083333  0.125000      1.000000
 -0.250000  0.083333  0.125000      1.000000
 -0.083333  0.083333  0.125000      1.000000
  0.083333  0.250000  0.125000      1.000000
  0.250000  0.250000  0.125000      1.000000
  0.416667  0.250000  0.125000      1.000000
 -0.416667  0.250000  0.125000      1.000000
 -0.250000  0.250000  0.125000      1.000000
 -0.083333  0.250000  0.125000      1.000000
  0.083333  0.416667  0.125000      1.000000
  0.250000  0.416667  0.125000      1.000000
  0.416667  0.416667  0.125000      1.000000
 -0.416667  0.416667  0.125000      1.000000
 -0.250000  0.416667  0.125000      1.000000
 -0.083333  0.416667  0.125000      1.000000
  0.083333 -0.416667  0.125000      1.000000
  0.250000 -0.416667  0.125000      1.000000
  0.416667 -0.416667  0.125000      1.000000
 -0.416667 -0.416667  0.125000      1.000000
 -0.250000 -0.416667  0.125000      1.000000
 -0.083333 -0.416667  0.125000      1.000000
  0.083333 -0.250000  0.125000      1.000000
  0.250000 -0.250000  0.125000      1.000000
  0.416667 -0.250000  0.125000      1.000000
 -0.416667 -0.250000  0.125000      1.000000
 -0.250000 -0.250000  0.125000      1.000000
 -0.083333 -0.250000  0.125000      1.000000
  0.083333 -0.083333  0.125000      1.000000
  0.250000 -0.083333  0.125000      1.000000
  0.416667 -0.083333  0.125000      1.000000
 -0.416667 -0.083333  0.125000      1.000000
 -0.250000 -0.083333  0.125000      1.000000
 -0.083333 -0.083333  0.125000      1.000000
  0.083333  0.083333  0.375000      1.000000
  0.250000  0.083333  0.375000      1.000000
  0.416667  0.083333  0.375000      1.000000
 -0.416667  0.083333  0.375000      1.000000
 -0.250000  0.083333  0.375000      1.000000
 -0.083333  0.083333  0.375000      1.000000
  0.083333  0.250000  0.375000      1.000000
  0.250000  0.250000  0.375000      1.000000
  0.416667  0.250000  0.375000      1.000000
 -0.416667  0.250000  0.375000      1.000000
 -0.250000  0.250000  0.375000      1.000000
 -0.083333  0.250000  0.375000      1.000000
  0.083333  0.416667  0.375000      1.000000
  0.250000  0.416667  0.375000      1.000000
  0.416667  0.416667  0.375000      1.000000
 -0.416667  0.416667  0.375000      1.000000
 -0.250000  0.416667  0.375000      1.000000
 -0.083333  0.416667  0.375000      1.000000
  0.083333 -0.416667  0.375000      1.000000
  0.250000 -0.416667  0.375000      1.000000
  0.416667 -0.416667  0.375000      1.000000
 -0.416667 -0.416667  0.375000      1.000000
 -0.250000 -0.416667  0.375000      1.000000
 -0.083333 -0.416667  0.375000      1.000000
  0.083333 -0.250000  0.375000      1.000000
  0.250000 -0.250000  0.375000      1.000000
  0.416667 -0.250000  0.375000      1.000000
 -0.416667 -0.250000  0.375000      1.000000
 -0.250000 -0.250000  0.375000      1.000000
 -0.083333 -0.250000  0.375000      1.000000
  0.083333 -0.083333  0.375000      1.000000
  0.250000 -0.083333  0.375000      1.000000
  0.416667 -0.083333  0.375000      1.000000
 -0.416667 -0.083333  0.375000      1.000000
 -0.250000 -0.083333  0.375000      1.000000
 -0.083333 -0.083333  0.375000      1.000000
  0.083333  0.083333 -0.375000      1.000000
  0.250000  0.083333 -0.375000      1.000000
  0.416667  0.083333 -0.375000      1.000000
 -0.416667  0.083333 -0.375000      1.000000
 -0.250000  0.083333 -0.375000      1.000000
 -0.083333  0.083333 -0.375000      1.000000
  0.083333  0.250000 -0.375000      1.000000
  0.250000  0.250000 -0.375000      1.000000
  0.416667  0.250000 -0.375000      1.000000
 -0.416667  0.250000 -0.375000      1.000000
 -0.250000  0.250000 -0.375000      1.000000
 -0.083333  0.250000 -0.375000      1.000000
  0.083333  0.416667 -0.375000      1.000000
  0.250000  0.416667 -0.375000      1.000000
  0.416667  0.416667 -0.375000      1.000000
 -0.416667  0.416667 -0.375000      1.000000
 -0.250000  0.416667 -0.375000      1.000000
 -0.083333  0.416667 -0.375000      1.000000
  0.083333 -0.416667 -0.375000      1.000000
  0.250000 -0.416667 -0.375000      1.000000
  0.416667 -0.416667 -0.375000      1.000000
 -0.416667 -0.416667 -0.375000      1.000000
 -0.250000 -0.416667 -0.375000      1.000000
 -0.083333 -0.416667 -0.375000      1.000000
  0.083333 -0.250000 -0.375000      1.000000
  0.250000 -0.250000 -0.375000      1.000000
  0.416667 -0.250000 -0.375000      1.000000
 -0.416667 -0.250000 -0.375000      1.000000
 -0.250000 -0.250000 -0.375000      1.000000
 -0.083333 -0.250000 -0.375000      1.000000
  0.083333 -0.083333 -0.375000      1.000000
  0.250000 -0.083333 -0.375000      1.000000
  0.416667 -0.083333 -0.375000      1.000000
 -0.416667 -0.083333 -0.375000      1.000000
 -0.250000 -0.083333 -0.375000      1.000000
 -0.083333 -0.083333 -0.375000      1.000000
  0.083333  0.083333 -0.125000      1.000000
  0.250000  0.083333 -0.125000      1.000000
  0.416667  0.083333 -0.125000      1.000000
 -0.416667  0.083333 -0.125000      1.000000
 -0.250000  0.083333 -0.125000      1.000000
 -0.083333  0.083333 -0.125000      1.000000
  0.083333  0.250000 -0.125000      1.000000
  0.250000  0.250000 -0.125000      1.000000
  0.416667  0.250000 -0.125000      1.000000
 -0.416667  0.250000 -0.125000      1.000000
 -0.250000  0.250000 -0.125000      1.000000
 -0.083333  0.250000 -0.125000      1.000000
  0.083333  0.416667 -0.125000      1.000000
  0.250000  0.416667 -0.125000      1.000000
  0.416667  0.416667 -0.125000      1.000000
 -0.416667  0.416667 -0.125000      1.000000
 -0.250000  0.416667 -0.125000      1.000000
 -0.083333  0.416667 -0.125000      1.000000
  0.083333 -0.416667 -0.125000      1.000000
  0.250000 -0.416667 -0.125000      1.000000
  0.416667 -0.416667 -0.125000      1.000000
 -0.416667 -0.416667 -0.125000      1.000000
 -0.250000 -0.416667 -0.125000      1.000000
 -0.083333 -0.416667 -0.125000      1.000000
  0.083333 -0.250000 -0.125000      1.000000
  0.250000 -0.250000 -0.125000      1.000000
  0.416667 -0.250000 -0.125000      1.000000
 -0.416667 -0.250000 -0.125000      1.000000
 -0.250000 -0.250000 -0.125000      1.000000
 -0.083333 -0.250000 -0.125000      1.000000
  0.083333 -0.083333 -0.125000      1.000000
  0.250000 -0.083333 -0.125000      1.000000
  0.416667 -0.083333 -0.125000      1.000000
 -0.416667 -0.083333 -0.125000      1.000000
 -0.250000 -0.083333 -0.125000      1.000000
 -0.083333 -0.083333 -0.125000      1.000000
 
 Following cartesian coordinates:
            Coordinates               Weight
  0.015318  0.015376  0.016262      1.000000
  0.045953  0.015376  0.016262      1.000000
  0.076589  0.015376  0.016262      1.000000
 -0.076589  0.015376  0.016262      1.000000
 -0.045953  0.015376  0.016262      1.000000
 -0.015318  0.015376  0.016262      1.000000
  0.015318  0.046128  0.016262      1.000000
  0.045953  0.046128  0.016262      1.000000
  0.076589  0.046128  0.016262      1.000000
 -0.076589  0.046128  0.016262      1.000000
 -0.045953  0.046128  0.016262      1.000000
 -0.015318  0.046128  0.016262      1.000000
  0.015318  0.076880  0.016262      1.000000
  0.045953  0.076880  0.016262      1.000000
  0.076589  0.076880  0.016262      1.000000
 -0.076589  0.076880  0.016262      1.000000
 -0.045953  0.076880  0.016262      1.000000
 -0.015318  0.076880  0.016262      1.000000
  0.015318 -0.076880  0.016262      1.000000
  0.045953 -0.076880  0.016262      1.000000
  0.076589 -0.076880  0.016262      1.000000
 -0.076589 -0.076880  0.016262      1.000000
 -0.045953 -0.076880  0.016262      1.000000
 -0.015318 -0.076880  0.016262      1.000000
  0.015318 -0.046128  0.016262      1.000000
  0.045953 -0.046128  0.016262      1.000000
  0.076589 -0.046128  0.016262      1.000000
 -0.076589 -0.046128  0.016262      1.000000
 -0.045953 -0.046128  0.016262      1.000000
 -0.015318 -0.046128  0.016262      1.000000
  0.015318 -0.015376  0.016262      1.000000
  0.045953 -0.015376  0.016262      1.000000
  0.076589 -0.015376  0.016262      1.000000
 -0.076589 -0.015376  0.016262      1.000000
 -0.045953 -0.015376  0.016262      1.000000
 -0.015318 -0.015376  0.016262      1.000000
  0.015318  0.015376  0.048786      1.000000
  0.045953  0.015376  0.048786      1.000000
  0.076589  0.015376  0.048786      1.000000
 -0.076589  0.015376  0.048786      1.000000
 -0.045953  0.015376  0.048786      1.000000
 -0.015318  0.015376  0.048786      1.000000
  0.015318  0.046128  0.048786      1.000000
  0.045953  0.046128  0.048786      1.000000
  0.076589  0.046128  0.048786      1.000000
 -0.076589  0.046128  0.048786      1.000000
 -0.045953  0.046128  0.048786      1.000000
 -0.015318  0.046128  0.048786      1.000000
  0.015318  0.076880  0.048786      1.000000
  0.045953  0.076880  0.048786      1.000000
  0.076589  0.076880  0.048786      1.000000
 -0.076589  0.076880  0.048786      1.000000
 -0.045953  0.076880  0.048786      1.000000
 -0.015318  0.076880  0.048786      1.000000
  0.015318 -0.076880  0.048786      1.000000
  0.045953 -0.076880  0.048786      1.000000
  0.076589 -0.076880  0.048786      1.000000
 -0.076589 -0.076880  0.048786      1.000000
 -0.045953 -0.076880  0.048786      1.000000
 -0.015318 -0.076880  0.048786      1.000000
  0.015318 -0.046128  0.048786      1.000000
  0.045953 -0.046128  0.048786      1.000000
  0.076589 -0.046128  0.048786      1.000000
 -0.076589 -0.046128  0.048786      1.000000
 -0.045953 -0.046128  0.048786      1.000000
 -0.015318 -0.046128  0.048786      1.000000
  0.015318 -0.015376  0.048786      1.000000
  0.045953 -0.015376  0.048786      1.000000
  0.076589 -0.015376  0.048786      1.000000
 -0.076589 -0.015376  0.048786      1.000000
 -0.045953 -0.015376  0.048786      1.000000
 -0.015318 -0.015376  0.048786      1.000000
  0.015318  0.015376 -0.048786      1.000000
  0.045953  0.015376 -0.048786      1.000000
  0.076589  0.015376 -0.048786      1.000000
 -0.076589  0.015376 -0.048786      1.000000
 -0.045953  0.015376 -0.048786      1.000000
 -0.015318  0.015376 -0.048786      1.000000
  0.015318  0.046128 -0.048786      1.000000
  0.045953  0.046128 -0.048786      1.000000
  0.076589  0.046128 -0.048786      1.000000
 -0.076589  0.046128 -0.048786      1.000000
 -0.045953  0.046128 -0.048786      1.000000
 -0.015318  0.046128 -0.048786      1.000000
  0.015318  0.076880 -0.048786      1.000000
  0.045953  0.076880 -0.048786      1.000000
  0.076589  0.076880 -0.048786      1.000000
 -0.076589  0.076880 -0.048786      1.000000
 -0.045953  0.076880 -0.048786      1.000000
 -0.015318  0.076880 -0.048786      1.000000
  0.015318 -0.076880 -0.048786      1.000000
  0.045953 -0.076880 -0.048786      1.000000
  0.076589 -0.076880 -0.048786      1.000000
 -0.076589 -0.076880 -0.048786      1.000000
 -0.045953 -0.076880 -0.048786      1.000000
 -0.015318 -0.076880 -0.048786      1.000000
  0.015318 -0.046128 -0.048786      1.000000
  0.045953 -0.046128 -0.048786      1.000000
  0.076589 -0.046128 -0.048786      1.000000
 -0.076589 -0.046128 -0.048786      1.000000
 -0.045953 -0.046128 -0.048786      1.000000
 -0.015318 -0.046128 -0.048786      1.000000
  0.015318 -0.015376 -0.048786      1.000000
  0.045953 -0.015376 -0.048786      1.000000
  0.076589 -0.015376 -0.048786      1.000000
 -0.076589 -0.015376 -0.048786      1.000000
 -0.045953 -0.015376 -0.048786      1.000000
 -0.015318 -0.015376 -0.048786      1.000000
  0.015318  0.015376 -0.016262      1.000000
  0.045953  0.015376 -0.016262      1.000000
  0.076589  0.015376 -0.016262      1.000000
 -0.076589  0.015376 -0.016262      1.000000
 -0.045953  0.015376 -0.016262      1.000000
 -0.015318  0.015376 -0.016262      1.000000
  0.015318  0.046128 -0.016262      1.000000
  0.045953  0.046128 -0.016262      1.000000
  0.076589  0.046128 -0.016262      1.000000
 -0.076589  0.046128 -0.016262      1.000000
 -0.045953  0.046128 -0.016262      1.000000
 -0.015318  0.046128 -0.016262      1.000000
  0.015318  0.076880 -0.016262      1.000000
  0.045953  0.076880 -0.016262      1.000000
  0.076589  0.076880 -0.016262      1.000000
 -0.076589  0.076880 -0.016262      1.000000
 -0.045953  0.076880 -0.016262      1.000000
 -0.015318  0.076880 -0.016262      1.000000
  0.015318 -0.076880 -0.016262      1.000000
  0.045953 -0.076880 -0.016262      1.000000
  0.076589 -0.076880 -0.016262      1.000000
 -0.076589 -0.076880 -0.016262      1.000000
 -0.045953 -0.076880 -0.016262      1.000000
 -0.015318 -0.076880 -0.016262      1.000000
  0.015318 -0.046128 -0.016262      1.000000
  0.045953 -0.046128 -0.016262      1.000000
  0.076589 -0.046128 -0.016262      1.000000
 -0.076589 -0.046128 -0.016262      1.000000
 -0.045953 -0.046128 -0.016262      1.000000
 -0.015318 -0.046128 -0.016262      1.000000
  0.015318 -0.015376 -0.016262      1.000000
  0.045953 -0.015376 -0.016262      1.000000
  0.076589 -0.015376 -0.016262      1.000000
 -0.076589 -0.015376 -0.016262      1.000000
 -0.045953 -0.015376 -0.016262      1.000000
 -0.015318 -0.015376 -0.016262      1.000000
 
 WARNING: full set of k-points will be restricted to regular points only.

 
 Subroutine IBZKPT_HF returns following result:
 ==============================================
 
 Found    144 k-points in 1st BZ
 the following    144 k-points will be used (e.g. in the exchange kernel)
 Following reciprocal coordinates:   # in IRBZ
  0.083333  0.083333  0.125000    0.00694444   1 t-inv F
  0.250000  0.083333  0.125000    0.00694444   2 t-inv F
  0.416667  0.083333  0.125000    0.00694444   3 t-inv F
 -0.416667  0.083333  0.125000    0.00694444   4 t-inv F
 -0.250000  0.083333  0.125000    0.00694444   5 t-inv F
 -0.083333  0.083333  0.125000    0.00694444   6 t-inv F
  0.083333  0.250000  0.125000    0.00694444   7 t-inv F
  0.250000  0.250000  0.125000    0.00694444   8 t-inv F
  0.416667  0.250000  0.125000    0.00694444   9 t-inv F
 -0.416667  0.250000  0.125000    0.00694444  10 t-inv F
 -0.250000  0.250000  0.125000    0.00694444  11 t-inv F
 -0.083333  0.250000  0.125000    0.00694444  12 t-inv F
  0.083333  0.416667  0.125000    0.00694444  13 t-inv F
  0.250000  0.416667  0.125000    0.00694444  14 t-inv F
  0.416667  0.416667  0.125000    0.00694444  15 t-inv F
 -0.416667  0.416667  0.125000    0.00694444  16 t-inv F
 -0.250000  0.416667  0.125000    0.00694444  17 t-inv F
 -0.083333  0.416667  0.125000    0.00694444  18 t-inv F
  0.083333 -0.416667  0.125000    0.00694444  19 t-inv F
  0.250000 -0.416667  0.125000    0.00694444  20 t-inv F
  0.416667 -0.416667  0.125000    0.00694444  21 t-inv F
 -0.416667 -0.416667  0.125000    0.00694444  22 t-inv F
 -0.250000 -0.416667  0.125000    0.00694444  23 t-inv F
 -0.083333 -0.416667  0.125000    0.00694444  24 t-inv F
  0.083333 -0.250000  0.125000    0.00694444  25 t-inv F
  0.250000 -0.250000  0.125000    0.00694444  26 t-inv F
  0.416667 -0.250000  0.125000    0.00694444  27 t-inv F
 -0.416667 -0.250000  0.125000    0.00694444  28 t-inv F
 -0.250000 -0.250000  0.125000    0.00694444  29 t-inv F
 -0.083333 -0.250000  0.125000    0.00694444  30 t-inv F
  0.083333 -0.083333  0.125000    0.00694444  31 t-inv F
  0.250000 -0.083333  0.125000    0.00694444  32 t-inv F
  0.416667 -0.083333  0.125000    0.00694444  33 t-inv F
 -0.416667 -0.083333  0.125000    0.00694444  34 t-inv F
 -0.250000 -0.083333  0.125000    0.00694444  35 t-inv F
 -0.083333 -0.083333  0.125000    0.00694444  36 t-inv F
  0.083333  0.083333  0.375000    0.00694444  37 t-inv F
  0.250000  0.083333  0.375000    0.00694444  38 t-inv F
  0.416667  0.083333  0.375000    0.00694444  39 t-inv F
 -0.416667  0.083333  0.375000    0.00694444  40 t-inv F
 -0.250000  0.083333  0.375000    0.00694444  41 t-inv F
 -0.083333  0.083333  0.375000    0.00694444  42 t-inv F
  0.083333  0.250000  0.375000    0.00694444  43 t-inv F
  0.250000  0.250000  0.375000    0.00694444  44 t-inv F
  0.416667  0.250000  0.375000    0.00694444  45 t-inv F
 -0.416667  0.250000  0.375000    0.00694444  46 t-inv F
 -0.250000  0.250000  0.375000    0.00694444  47 t-inv F
 -0.083333  0.250000  0.375000    0.00694444  48 t-inv F
  0.083333  0.416667  0.375000    0.00694444  49 t-inv F
  0.250000  0.416667  0.375000    0.00694444  50 t-inv F
  0.416667  0.416667  0.375000    0.00694444  51 t-inv F
 -0.416667  0.416667  0.375000    0.00694444  52 t-inv F
 -0.250000  0.416667  0.375000    0.00694444  53 t-inv F
 -0.083333  0.416667  0.375000    0.00694444  54 t-inv F
  0.083333 -0.416667  0.375000    0.00694444  55 t-inv F
  0.250000 -0.416667  0.375000    0.00694444  56 t-inv F
  0.416667 -0.416667  0.375000    0.00694444  57 t-inv F
 -0.416667 -0.416667  0.375000    0.00694444  58 t-inv F
 -0.250000 -0.416667  0.375000    0.00694444  59 t-inv F
 -0.083333 -0.416667  0.375000    0.00694444  60 t-inv F
  0.083333 -0.250000  0.375000    0.00694444  61 t-inv F
  0.250000 -0.250000  0.375000    0.00694444  62 t-inv F
  0.416667 -0.250000  0.375000    0.00694444  63 t-inv F
 -0.416667 -0.250000  0.375000    0.00694444  64 t-inv F
 -0.250000 -0.250000  0.375000    0.00694444  65 t-inv F
 -0.083333 -0.250000  0.375000    0.00694444  66 t-inv F
  0.083333 -0.083333  0.375000    0.00694444  67 t-inv F
  0.250000 -0.083333  0.375000    0.00694444  68 t-inv F
  0.416667 -0.083333  0.375000    0.00694444  69 t-inv F
 -0.416667 -0.083333  0.375000    0.00694444  70 t-inv F
 -0.250000 -0.083333  0.375000    0.00694444  71 t-inv F
 -0.083333 -0.083333  0.375000    0.00694444  72 t-inv F
  0.083333  0.083333 -0.375000    0.00694444  73 t-inv F
  0.250000  0.083333 -0.375000    0.00694444  74 t-inv F
  0.416667  0.083333 -0.375000    0.00694444  75 t-inv F
 -0.416667  0.083333 -0.375000    0.00694444  76 t-inv F
 -0.250000  0.083333 -0.375000    0.00694444  77 t-inv F
 -0.083333  0.083333 -0.375000    0.00694444  78 t-inv F
  0.083333  0.250000 -0.375000    0.00694444  79 t-inv F
  0.250000  0.250000 -0.375000    0.00694444  80 t-inv F
  0.416667  0.250000 -0.375000    0.00694444  81 t-inv F
 -0.416667  0.250000 -0.375000    0.00694444  82 t-inv F
 -0.250000  0.250000 -0.375000    0.00694444  83 t-inv F
 -0.083333  0.250000 -0.375000    0.00694444  84 t-inv F
  0.083333  0.416667 -0.375000    0.00694444  85 t-inv F
  0.250000  0.416667 -0.375000    0.00694444  86 t-inv F
  0.416667  0.416667 -0.375000    0.00694444  87 t-inv F
 -0.416667  0.416667 -0.375000    0.00694444  88 t-inv F
 -0.250000  0.416667 -0.375000    0.00694444  89 t-inv F
 -0.083333  0.416667 -0.375000    0.00694444  90 t-inv F
  0.083333 -0.416667 -0.375000    0.00694444  91 t-inv F
  0.250000 -0.416667 -0.375000    0.00694444  92 t-inv F
  0.416667 -0.416667 -0.375000    0.00694444  93 t-inv F
 -0.416667 -0.416667 -0.375000    0.00694444  94 t-inv F
 -0.250000 -0.416667 -0.375000    0.00694444  95 t-inv F
 -0.083333 -0.416667 -0.375000    0.00694444  96 t-inv F
  0.083333 -0.250000 -0.375000    0.00694444  97 t-inv F
  0.250000 -0.250000 -0.375000    0.00694444  98 t-inv F
  0.416667 -0.250000 -0.375000    0.00694444  99 t-inv F
 -0.416667 -0.250000 -0.375000    0.00694444 100 t-inv F
 -0.250000 -0.250000 -0.375000    0.00694444 101 t-inv F
 -0.083333 -0.250000 -0.375000    0.00694444 102 t-inv F
  0.083333 -0.083333 -0.375000    0.00694444 103 t-inv F
  0.250000 -0.083333 -0.375000    0.00694444 104 t-inv F
  0.416667 -0.083333 -0.375000    0.00694444 105 t-inv F
 -0.416667 -0.083333 -0.375000    0.00694444 106 t-inv F
 -0.250000 -0.083333 -0.375000    0.00694444 107 t-inv F
 -0.083333 -0.083333 -0.375000    0.00694444 108 t-inv F
  0.083333  0.083333 -0.125000    0.00694444 109 t-inv F
  0.250000  0.083333 -0.125000    0.00694444 110 t-inv F
  0.416667  0.083333 -0.125000    0.00694444 111 t-inv F
 -0.416667  0.083333 -0.125000    0.00694444 112 t-inv F
 -0.250000  0.083333 -0.125000    0.00694444 113 t-inv F
 -0.083333  0.083333 -0.125000    0.00694444 114 t-inv F
  0.083333  0.250000 -0.125000    0.00694444 115 t-inv F
  0.250000  0.250000 -0.125000    0.00694444 116 t-inv F
  0.416667  0.250000 -0.125000    0.00694444 117 t-inv F
 -0.416667  0.250000 -0.125000    0.00694444 118 t-inv F
 -0.250000  0.250000 -0.125000    0.00694444 119 t-inv F
 -0.083333  0.250000 -0.125000    0.00694444 120 t-inv F
  0.083333  0.416667 -0.125000    0.00694444 121 t-inv F
  0.250000  0.416667 -0.125000    0.00694444 122 t-inv F
  0.416667  0.416667 -0.125000    0.00694444 123 t-inv F
 -0.416667  0.416667 -0.125000    0.00694444 124 t-inv F
 -0.250000  0.416667 -0.125000    0.00694444 125 t-inv F
 -0.083333  0.416667 -0.125000    0.00694444 126 t-inv F
  0.083333 -0.416667 -0.125000    0.00694444 127 t-inv F
  0.250000 -0.416667 -0.125000    0.00694444 128 t-inv F
  0.416667 -0.416667 -0.125000    0.00694444 129 t-inv F
 -0.416667 -0.416667 -0.125000    0.00694444 130 t-inv F
 -0.250000 -0.416667 -0.125000    0.00694444 131 t-inv F
 -0.083333 -0.416667 -0.125000    0.00694444 132 t-inv F
  0.083333 -0.250000 -0.125000    0.00694444 133 t-inv F
  0.250000 -0.250000 -0.125000    0.00694444 134 t-inv F
  0.416667 -0.250000 -0.125000    0.00694444 135 t-inv F
 -0.416667 -0.250000 -0.125000    0.00694444 136 t-inv F
 -0.250000 -0.250000 -0.125000    0.00694444 137 t-inv F
 -0.083333 -0.250000 -0.125000    0.00694444 138 t-inv F
  0.083333 -0.083333 -0.125000    0.00694444 139 t-inv F
  0.250000 -0.083333 -0.125000    0.00694444 140 t-inv F
  0.416667 -0.083333 -0.125000    0.00694444 141 t-inv F
 -0.416667 -0.083333 -0.125000    0.00694444 142 t-inv F
 -0.250000 -0.083333 -0.125000    0.00694444 143 t-inv F
 -0.083333 -0.083333 -0.125000    0.00694444 144 t-inv F


--------------------------------------------------------------------------------------------------------




 Dimension of arrays:
   k-points           NKPTS =    144   k-points in BZ     NKDIM =    144   number of bands    NBANDS=    108
   number of dos      NEDOS =   2001   number of ions     NIONS =     20
   non local maximal  LDIM  =      6   non local SUM 2l+1 LMDIM =     18
   total plane-waves  NPLWV =  31360
   max r-space proj   IRMAX =      1   max aug-charges    IRDMAX=  10967
   dimension x,y,z NGX =    28 NGY =   28 NGZ =   40
   dimension x,y,z NGXF=    56 NGYF=   56 NGZF=   80
   support grid    NGXF=    56 NGYF=   56 NGZF=   80
   ions per type =               4   4  12
   NGX,Y,Z   is equivalent  to a cutoff of   8.56,  8.59,  8.65 a.u.
   NGXF,Y,Z  is equivalent  to a cutoff of  17.11, 17.18, 17.30 a.u.

 SYSTEM =  PrNiO3                                  
 POSCAR =  PrNiO3                                  

 Startparameter for this run:
   NWRITE =      2    write-flag & timer
   PREC   = normal    normal or accurate (medium, high low for compatibility)
   ISTART =      1    job   : 0-new  1-cont  2-samecut
   ICHARG =      5    charge: 1-file 2-atom 10-const
   ISPIN  =      1    spin polarized calculation?
   LNONCOLLINEAR =      F non collinear calculations
   LSORBIT =      F    spin-orbit coupling
   INIWAV =      1    electr: 0-lowe 1-rand  2-diag
   LASPH  =      F    aspherical Exc in radial PAW
 Electronic Relaxation 1
   ENCUT  =  400.0 eV  29.40 Ry    5.42 a.u.   8.87  8.84 12.53*2*pi/ulx,y,z
   ENINI  =  400.0     initial cutoff
   ENAUG  =  703.4 eV  augmentation charge cutoff
   NELM   =   1000;   NELMIN=***; NELMDL= -1     # of ELM steps 
   EDIFF  = 0.1E-03   stopping-criterion for ELM
   LREAL  =      F    real-space projection
   NLSPLINE    = F    spline interpolate recip. space projectors
   LCOMPAT=      F    compatible to vasp.4.4
   GGA_COMPAT  = T    GGA compatible to vasp.4.4-vasp.4.6
   LMAXPAW     = -100 max onsite density
   LMAXMIX     =    6 max onsite mixed and CHGCAR
   VOSKOWN=      0    Vosko Wilk Nusair interpolation
   ROPT   =    0.00000   0.00000   0.00000
 Ionic relaxation
   EDIFFG = 0.1E-02   stopping-criterion for IOM
   NSW    =      0    number of steps for IOM
   NBLOCK =      1;   KBLOCK =      1    inner block; outer block 
   IBRION =     -1    ionic relax: 0-MD 1-quasi-New 2-CG
   NFREE  =      0    steps in history (QN), initial steepest desc. (CG)
   ISIF   =      2    stress and relaxation
   IWAVPR =     10    prediction:  0-non 1-charg 2-wave 3-comb
   ISYM   =     -1    0-nonsym 1-usesym 2-fastsym
   LCORR  =      T    Harris-Foulkes like correction to forces

   POTIM  = 0.5000    time-step for ionic-motion
   TEIN   =    0.0    initial temperature
   TEBEG  =    0.0;   TEEND  =   0.0 temperature during run
   SMASS  =  -3.00    Nose mass-parameter (am)
   estimated Nose-frequenzy (Omega)   =  0.10E-29 period in steps = 0.13E+47 mass=  -0.676E-27a.u.
   SCALEE = 1.0000    scale energy and forces
   NPACO  =    256;   APACO  = 10.0  distance and # of slots for P.C.
   PSTRESS=    0.0 pullay stress

  Mass of Ions in am
   POMASS = 140.91 58.69 16.00
  Ionic Valenz
   ZVAL   =  11.00 16.00  6.00
  Atomic Wigner-Seitz radii
   RWIGS  =  -1.00 -1.00 -1.00
  virtual crystal weights 
   VCA    =   1.00  1.00  1.00
   NELECT =     180.0000    total number of electrons
   NUPDOWN=      -1.0000    fix difference up-down

 DOS related values:
   EMIN   =   1.00;   EMAX   = 10.00  energy-range for DOS
   EFERMI =   0.00;   METHOD = LEGACY      
   ISMEAR =    -5;   SIGMA  =   0.20  broadening in eV -4-tet -1-fermi 0-gaus

 Electronic relaxation 2 (details)
   IALGO  =     38    algorithm
   LDIAG  =      T    sub-space diagonalisation (order eigenvalues)
   LSUBROT=      F    optimize rotation matrix (better conditioning)
   TURBO    =      0    0=normal 1=particle mesh
   IRESTART =      0    0=no restart 2=restart with 2 vectors
   NREBOOT  =      0    no. of reboots
   NMIN     =      0    reboot dimension
   EREF     =   0.00    reference energy to select bands
   IMIX   =      1    mixing-type and parameters
     AMIX     =   0.04;   BMIX     =  0.30
     AMIX_MAG =   0.16;   BMIX_MAG =  0.30
     AMIN     =   0.04
     WC   =   100.;   INIMIX=   1;  MIXPRE=   1;  MAXMIX= -45

 Intra band minimization:
   WEIMIN = 0.0000     energy-eigenvalue tresh-hold
   EBREAK =  0.23E-06  absolut break condition
   DEPER  =   0.30     relativ break condition  

   TIME   =   0.40     timestep for ELM

  volume/ion in A,a.u.               =      11.33        76.47
  Fermi-wavevector in a.u.,A,eV,Ry     =   1.516078  2.864972 31.272880  2.298492
  Thomas-Fermi vector in A             =   2.625516

 Write flags
   LWAVE        =      T    write WAVECAR
   LDOWNSAMPLE  =      F    k-point downsampling of WAVECAR
   LCHARG       =      T    write CHGCAR
   LVTOT        =      F    write LOCPOT, total local potential
   LVHAR        =      F    write LOCPOT, Hartree potential only
   LELF         =      F    write electronic localiz. function (ELF)
   LORBIT       =     14    0 simple, 1 ext, 2 COOP (PROOUT), +10 PAW based schemes


 Dipole corrections
   LMONO  =      F    monopole corrections only (constant potential shift)
   LDIPOL =      F    correct potential (dipole corrections)
   IDIPOL =      0    1-x, 2-y, 3-z, 4-all directions 
   EPSILON=  1.0000000 bulk dielectric constant

 Exchange correlation treatment:
   GGA     =    --    GGA type
   LEXCH   =     8    internal setting for exchange type
   LIBXC   =     F    Libxc                    
   VOSKOWN =     0    Vosko Wilk Nusair interpolation
   LHFCALC =     F    Hartree Fock is set to
   LHFONE  =     F    Hartree Fock one center treatment
   AEXX    =    0.0000 exact exchange contribution

 Linear response parameters
   LEPSILON=     F    determine dielectric tensor
   LRPA    =     F    only Hartree local field effects (RPA)
   LNABLA  =     F    use nabla operator in PAW spheres
   LVEL    =     F    velocity operator in full k-point grid
   CSHIFT  =0.1000    complex shift for real part using Kramers Kronig
   OMEGAMAX=  -1.0    maximum frequency
   DEG_THRESHOLD= 0.2000000E-02 threshold for treating states as degnerate
   RTIME   =   -0.100 relaxation time in fs
  (WPLASMAI=    0.000 imaginary part of plasma frequency in eV, 0.658/RTIME)
   DFIELD  = 0.0000000 0.0000000 0.0000000 field for delta impulse in time

  Optional k-point grid parameters
   LKPOINTS_OPT  =     F    use optional k-point grid
   KPOINTS_OPT_MODE=     1    mode for optional k-point grid

 Orbital magnetization related:
   ORBITALMAG=     F  switch on orbital magnetization
   LCHIMAG   =     F  perturbation theory with respect to B field
   DQ        =  0.001000  dq finite difference perturbation B field
   LLRAUG    =     F  two centre corrections for induced B field
   LBONE     =     F  B-component reconstruction in AE one-centre
   LVGVCALC  =     T  calculate vGv susceptibility
   LVGVAPPL  =     F  apply vGv susceptibility instead of pGv for G=0

 Random number generation:
   RANDOM_GENERATOR = DEFAULT
   PCG_SEED         = not used


--------------------------------------------------------------------------------------------------------


 Static calculation
 charge density and potential will be updated during run
 non-spin polarized calculation
 Variant of blocked Davidson
 Davidson routine will perform the subspace rotation
 perform sub-space diagonalisation
    after iterative eigenvector-optimisation
 Kerker-like  mixing scheme
 using additional bands           18
 reciprocal scheme for non local part
 use partial core corrections
 calculate Harris-corrections to forces   (improved forces if not selfconsistent)
 use gradient corrections 
 use of overlap-Matrix (Vanderbilt PP)
 Fermi weights with tetrahedron method with Bloechl corrections


--------------------------------------------------------------------------------------------------------


  energy-cutoff  :      400.00
  volume of cell :      226.64
      direct lattice vectors                 reciprocal lattice vectors
     5.440290838 -0.000000000  0.000000000     0.183813702 -0.000000000  0.000000000
     0.000000000  5.419716597  0.000000000     0.000000000  0.184511493 -0.000000000
     0.000000000  0.000000000  7.686592486    -0.000000000  0.000000000  0.130096659

  length of vectors
     5.440290838  5.419716597  7.686592486     0.183813702  0.184511493  0.130096659



 old parameters found on file WAVECAR:
  energy-cutoff  :      400.00
  volume of cell :      226.64
      direct lattice vectors                 reciprocal lattice vectors
     5.440290838 -0.000000000  0.000000000     0.183813702 -0.000000000  0.000000000
     0.000000000  5.419716597  0.000000000     0.000000000  0.184511493 -0.000000000
     0.000000000  0.000000000  7.686592486    -0.000000000  0.000000000  0.130096659

  length of vectors


 k-points in units of 2pi/SCALE and weight: Automatic kpoint scheme                 
   0.01531781  0.01537596  0.01626208       0.007
   0.04595343  0.01537596  0.01626208       0.007
   0.07658904  0.01537596  0.01626208       0.007
  -0.07658904  0.01537596  0.01626208       0.007
  -0.04595343  0.01537596  0.01626208       0.007
  -0.01531781  0.01537596  0.01626208       0.007
   0.01531781  0.04612787  0.01626208       0.007
   0.04595343  0.04612787  0.01626208       0.007
   0.07658904  0.04612787  0.01626208       0.007
  -0.07658904  0.04612787  0.01626208       0.007
  -0.04595343  0.04612787  0.01626208       0.007
  -0.01531781  0.04612787  0.01626208       0.007
   0.01531781  0.07687979  0.01626208       0.007
   0.04595343  0.07687979  0.01626208       0.007
   0.07658904  0.07687979  0.01626208       0.007
  -0.07658904  0.07687979  0.01626208       0.007
  -0.04595343  0.07687979  0.01626208       0.007
  -0.01531781  0.07687979  0.01626208       0.007
   0.01531781 -0.07687979  0.01626208       0.007
   0.04595343 -0.07687979  0.01626208       0.007
   0.07658904 -0.07687979  0.01626208       0.007
  -0.07658904 -0.07687979  0.01626208       0.007
  -0.04595343 -0.07687979  0.01626208       0.007
  -0.01531781 -0.07687979  0.01626208       0.007
   0.01531781 -0.04612787  0.01626208       0.007
   0.04595343 -0.04612787  0.01626208       0.007
   0.07658904 -0.04612787  0.01626208       0.007
  -0.07658904 -0.04612787  0.01626208       0.007
  -0.04595343 -0.04612787  0.01626208       0.007
  -0.01531781 -0.04612787  0.01626208       0.007
   0.01531781 -0.01537596  0.01626208       0.007
   0.04595343 -0.01537596  0.01626208       0.007
   0.07658904 -0.01537596  0.01626208       0.007
  -0.07658904 -0.01537596  0.01626208       0.007
  -0.04595343 -0.01537596  0.01626208       0.007
  -0.01531781 -0.01537596  0.01626208       0.007
   0.01531781  0.01537596  0.04878625       0.007
   0.04595343  0.01537596  0.04878625       0.007
   0.07658904  0.01537596  0.04878625       0.007
  -0.07658904  0.01537596  0.04878625       0.007
  -0.04595343  0.01537596  0.04878625       0.007
  -0.01531781  0.01537596  0.04878625       0.007
   0.01531781  0.04612787  0.04878625       0.007
   0.04595343  0.04612787  0.04878625       0.007
   0.07658904  0.04612787  0.04878625       0.007
  -0.07658904  0.04612787  0.04878625       0.007
  -0.04595343  0.04612787  0.04878625       0.007
  -0.01531781  0.04612787  0.04878625       0.007
   0.01531781  0.07687979  0.04878625       0.007
   0.04595343  0.07687979  0.04878625       0.007
   0.07658904  0.07687979  0.04878625       0.007
  -0.07658904  0.07687979  0.04878625       0.007
  -0.04595343  0.07687979  0.04878625       0.007
  -0.01531781  0.07687979  0.04878625       0.007
   0.01531781 -0.07687979  0.04878625       0.007
   0.04595343 -0.07687979  0.04878625       0.007
   0.07658904 -0.07687979  0.04878625       0.007
  -0.07658904 -0.07687979  0.04878625       0.007
  -0.04595343 -0.07687979  0.04878625       0.007
  -0.01531781 -0.07687979  0.04878625       0.007
   0.01531781 -0.04612787  0.04878625       0.007
   0.04595343 -0.04612787  0.04878625       0.007
   0.07658904 -0.04612787  0.04878625       0.007
  -0.07658904 -0.04612787  0.04878625       0.007
  -0.04595343 -0.04612787  0.04878625       0.007
  -0.01531781 -0.04612787  0.04878625       0.007
   0.01531781 -0.01537596  0.04878625       0.007
   0.04595343 -0.01537596  0.04878625       0.007
   0.07658904 -0.01537596  0.04878625       0.007
  -0.07658904 -0.01537596  0.04878625       0.007
  -0.04595343 -0.01537596  0.04878625       0.007
  -0.01531781 -0.01537596  0.04878625       0.007
   0.01531781  0.01537596 -0.04878625       0.007
   0.04595343  0.01537596 -0.04878625       0.007
   0.07658904  0.01537596 -0.04878625       0.007
  -0.07658904  0.01537596 -0.04878625       0.007
  -0.04595343  0.01537596 -0.04878625       0.007
  -0.01531781  0.01537596 -0.04878625       0.007
   0.01531781  0.04612787 -0.04878625       0.007
   0.04595343  0.04612787 -0.04878625       0.007
   0.07658904  0.04612787 -0.04878625       0.007
  -0.07658904  0.04612787 -0.04878625       0.007
  -0.04595343  0.04612787 -0.04878625       0.007
  -0.01531781  0.04612787 -0.04878625       0.007
   0.01531781  0.07687979 -0.04878625       0.007
   0.04595343  0.07687979 -0.04878625       0.007
   0.07658904  0.07687979 -0.04878625       0.007
  -0.07658904  0.07687979 -0.04878625       0.007
  -0.04595343  0.07687979 -0.04878625       0.007
  -0.01531781  0.07687979 -0.04878625       0.007
   0.01531781 -0.07687979 -0.04878625       0.007
   0.04595343 -0.07687979 -0.04878625       0.007
   0.07658904 -0.07687979 -0.04878625       0.007
  -0.07658904 -0.07687979 -0.04878625       0.007
  -0.04595343 -0.07687979 -0.04878625       0.007
  -0.01531781 -0.07687979 -0.04878625       0.007
   0.01531781 -0.04612787 -0.04878625       0.007
   0.04595343 -0.04612787 -0.04878625       0.007
   0.07658904 -0.04612787 -0.04878625       0.007
  -0.07658904 -0.04612787 -0.04878625       0.007
  -0.04595343 -0.04612787 -0.04878625       0.007
  -0.01531781 -0.04612787 -0.04878625       0.007
   0.01531781 -0.01537596 -0.04878625       0.007
   0.04595343 -0.01537596 -0.04878625       0.007
   0.07658904 -0.01537596 -0.04878625       0.007
  -0.07658904 -0.01537596 -0.04878625       0.007
  -0.04595343 -0.01537596 -0.04878625       0.007
  -0.01531781 -0.01537596 -0.04878625       0.007
   0.01531781  0.01537596 -0.01626208       0.007
   0.04595343  0.01537596 -0.01626208       0.007
   0.07658904  0.01537596 -0.01626208       0.007
  -0.07658904  0.01537596 -0.01626208       0.007
  -0.04595343  0.01537596 -0.01626208       0.007
  -0.01531781  0.01537596 -0.01626208       0.007
   0.01531781  0.04612787 -0.01626208       0.007
   0.04595343  0.04612787 -0.01626208       0.007
   0.07658904  0.04612787 -0.01626208       0.007
  -0.07658904  0.04612787 -0.01626208       0.007
  -0.04595343  0.04612787 -0.01626208       0.007
  -0.01531781  0.04612787 -0.01626208       0.007
   0.01531781  0.07687979 -0.01626208       0.007
   0.04595343  0.07687979 -0.01626208       0.007
   0.07658904  0.07687979 -0.01626208       0.007
  -0.07658904  0.07687979 -0.01626208       0.007
  -0.04595343  0.07687979 -0.01626208       0.007
  -0.01531781  0.07687979 -0.01626208       0.007
   0.01531781 -0.07687979 -0.01626208       0.007
   0.04595343 -0.07687979 -0.01626208       0.007
   0.07658904 -0.07687979 -0.01626208       0.007
  -0.07658904 -0.07687979 -0.01626208       0.007
  -0.04595343 -0.07687979 -0.01626208       0.007
  -0.01531781 -0.07687979 -0.01626208       0.007
   0.01531781 -0.04612787 -0.01626208       0.007
   0.04595343 -0.04612787 -0.01626208       0.007
   0.07658904 -0.04612787 -0.01626208       0.007
  -0.07658904 -0.04612787 -0.01626208       0.007
  -0.04595343 -0.04612787 -0.01626208       0.007
  -0.01531781 -0.04612787 -0.01626208       0.007
   0.01531781 -0.01537596 -0.01626208       0.007
   0.04595343 -0.01537596 -0.01626208       0.007
   0.07658904 -0.01537596 -0.01626208       0.007
  -0.07658904 -0.01537596 -0.01626208       0.007
  -0.04595343 -0.01537596 -0.01626208       0.007
  -0.01531781 -0.01537596 -0.01626208       0.007

 k-points in reciprocal lattice and weights: Automatic kpoint scheme                 
   0.08333333  0.08333333  0.12500000       0.007
   0.25000000  0.08333333  0.12500000       0.007
   0.41666667  0.08333333  0.12500000       0.007
  -0.41666667  0.08333333  0.12500000       0.007
  -0.25000000  0.08333333  0.12500000       0.007
  -0.08333333  0.08333333  0.12500000       0.007
   0.08333333  0.25000000  0.12500000       0.007
   0.25000000  0.25000000  0.12500000       0.007
   0.41666667  0.25000000  0.12500000       0.007
  -0.41666667  0.25000000  0.12500000       0.007
  -0.25000000  0.25000000  0.12500000       0.007
  -0.08333333  0.25000000  0.12500000       0.007
   0.08333333  0.41666667  0.12500000       0.007
   0.25000000  0.41666667  0.12500000       0.007
   0.41666667  0.41666667  0.12500000       0.007
  -0.41666667  0.41666667  0.12500000       0.007
  -0.25000000  0.41666667  0.12500000       0.007
  -0.08333333  0.41666667  0.12500000       0.007
   0.08333333 -0.41666667  0.12500000       0.007
   0.25000000 -0.41666667  0.12500000       0.007
   0.41666667 -0.41666667  0.12500000       0.007
  -0.41666667 -0.41666667  0.12500000       0.007
  -0.25000000 -0.41666667  0.12500000       0.007
  -0.08333333 -0.41666667  0.12500000       0.007
   0.08333333 -0.25000000  0.12500000       0.007
   0.25000000 -0.25000000  0.12500000       0.007
   0.41666667 -0.25000000  0.12500000       0.007
  -0.41666667 -0.25000000  0.12500000       0.007
  -0.25000000 -0.25000000  0.12500000       0.007
  -0.08333333 -0.25000000  0.12500000       0.007
   0.08333333 -0.08333333  0.12500000       0.007
   0.25000000 -0.08333333  0.12500000       0.007
   0.41666667 -0.08333333  0.12500000       0.007
  -0.41666667 -0.08333333  0.12500000       0.007
  -0.25000000 -0.08333333  0.12500000       0.007
  -0.08333333 -0.08333333  0.12500000       0.007
   0.08333333  0.08333333  0.37500000       0.007
   0.25000000  0.08333333  0.37500000       0.007
   0.41666667  0.08333333  0.37500000       0.007
  -0.41666667  0.08333333  0.37500000       0.007
  -0.25000000  0.08333333  0.37500000       0.007
  -0.08333333  0.08333333  0.37500000       0.007
   0.08333333  0.25000000  0.37500000       0.007
   0.25000000  0.25000000  0.37500000       0.007
   0.41666667  0.25000000  0.37500000       0.007
  -0.41666667  0.25000000  0.37500000       0.007
  -0.25000000  0.25000000  0.37500000       0.007
  -0.08333333  0.25000000  0.37500000       0.007
   0.08333333  0.41666667  0.37500000       0.007
   0.25000000  0.41666667  0.37500000       0.007
   0.41666667  0.41666667  0.37500000       0.007
  -0.41666667  0.41666667  0.37500000       0.007
  -0.25000000  0.41666667  0.37500000       0.007
  -0.08333333  0.41666667  0.37500000       0.007
   0.08333333 -0.41666667  0.37500000       0.007
   0.25000000 -0.41666667  0.37500000       0.007
   0.41666667 -0.41666667  0.37500000       0.007
  -0.41666667 -0.41666667  0.37500000       0.007
  -0.25000000 -0.41666667  0.37500000       0.007
  -0.08333333 -0.41666667  0.37500000       0.007
   0.08333333 -0.25000000  0.37500000       0.007
   0.25000000 -0.25000000  0.37500000       0.007
   0.41666667 -0.25000000  0.37500000       0.007
  -0.41666667 -0.25000000  0.37500000       0.007
  -0.25000000 -0.25000000  0.37500000       0.007
  -0.08333333 -0.25000000  0.37500000       0.007
   0.08333333 -0.08333333  0.37500000       0.007
   0.25000000 -0.08333333  0.37500000       0.007
   0.41666667 -0.08333333  0.37500000       0.007
  -0.41666667 -0.08333333  0.37500000       0.007
  -0.25000000 -0.08333333  0.37500000       0.007
  -0.08333333 -0.08333333  0.37500000       0.007
   0.08333333  0.08333333 -0.37500000       0.007
   0.25000000  0.08333333 -0.37500000       0.007
   0.41666667  0.08333333 -0.37500000       0.007
  -0.41666667  0.08333333 -0.37500000       0.007
  -0.25000000  0.08333333 -0.37500000       0.007
  -0.08333333  0.08333333 -0.37500000       0.007
   0.08333333  0.25000000 -0.37500000       0.007
   0.25000000  0.25000000 -0.37500000       0.007
   0.41666667  0.25000000 -0.37500000       0.007
  -0.41666667  0.25000000 -0.37500000       0.007
  -0.25000000  0.25000000 -0.37500000       0.007
  -0.08333333  0.25000000 -0.37500000       0.007
   0.08333333  0.41666667 -0.37500000       0.007
   0.25000000  0.41666667 -0.37500000       0.007
   0.41666667  0.41666667 -0.37500000       0.007
  -0.41666667  0.41666667 -0.37500000       0.007
  -0.25000000  0.41666667 -0.37500000       0.007
  -0.08333333  0.41666667 -0.37500000       0.007
   0.08333333 -0.41666667 -0.37500000       0.007
   0.25000000 -0.41666667 -0.37500000       0.007
   0.41666667 -0.41666667 -0.37500000       0.007
  -0.41666667 -0.41666667 -0.37500000       0.007
  -0.25000000 -0.41666667 -0.37500000       0.007
  -0.08333333 -0.41666667 -0.37500000       0.007
   0.08333333 -0.25000000 -0.37500000       0.007
   0.25000000 -0.25000000 -0.37500000       0.007
   0.41666667 -0.25000000 -0.37500000       0.007
  -0.41666667 -0.25000000 -0.37500000       0.007
  -0.25000000 -0.25000000 -0.37500000       0.007
  -0.08333333 -0.25000000 -0.37500000       0.007
   0.08333333 -0.08333333 -0.37500000       0.007
   0.25000000 -0.08333333 -0.37500000       0.007
   0.41666667 -0.08333333 -0.37500000       0.007
  -0.41666667 -0.08333333 -0.37500000       0.007
  -0.25000000 -0.08333333 -0.37500000       0.007
  -0.08333333 -0.08333333 -0.37500000       0.007
   0.08333333  0.08333333 -0.12500000       0.007
   0.25000000  0.08333333 -0.12500000       0.007
   0.41666667  0.08333333 -0.12500000       0.007
  -0.41666667  0.08333333 -0.12500000       0.007
  -0.25000000  0.08333333 -0.12500000       0.007
  -0.08333333  0.08333333 -0.12500000       0.007
   0.08333333  0.25000000 -0.12500000       0.007
   0.25000000  0.25000000 -0.12500000       0.007
   0.41666667  0.25000000 -0.12500000       0.007
  -0.41666667  0.25000000 -0.12500000       0.007
  -0.25000000  0.25000000 -0.12500000       0.007
  -0.08333333  0.25000000 -0.12500000       0.007
   0.08333333  0.41666667 -0.12500000       0.007
   0.25000000  0.41666667 -0.12500000       0.007
   0.41666667  0.41666667 -0.12500000       0.007
  -0.41666667  0.41666667 -0.12500000       0.007
  -0.25000000  0.41666667 -0.12500000       0.007
  -0.08333333  0.41666667 -0.12500000       0.007
   0.08333333 -0.41666667 -0.12500000       0.007
   0.25000000 -0.41666667 -0.12500000       0.007
   0.41666667 -0.41666667 -0.12500000       0.007
  -0.41666667 -0.41666667 -0.12500000       0.007
  -0.25000000 -0.41666667 -0.12500000       0.007
  -0.08333333 -0.41666667 -0.12500000       0.007
   0.08333333 -0.25000000 -0.12500000       0.007
   0.25000000 -0.25000000 -0.12500000       0.007
   0.41666667 -0.25000000 -0.12500000       0.007
  -0.41666667 -0.25000000 -0.12500000       0.007
  -0.25000000 -0.25000000 -0.12500000       0.007
  -0.08333333 -0.25000000 -0.12500000       0.007
   0.08333333 -0.08333333 -0.12500000       0.007
   0.25000000 -0.08333333 -0.12500000       0.007
   0.41666667 -0.08333333 -0.12500000       0.007
  -0.41666667 -0.08333333 -0.12500000       0.007
  -0.25000000 -0.08333333 -0.12500000       0.007
  -0.08333333 -0.08333333 -0.12500000       0.007

 position of ions in fractional coordinates (direct lattice) 
   0.99250048  0.03600951  0.25000000
   0.00749952  0.96399049  0.75000000
   0.49250048  0.46399049  0.75000000
   0.50749952  0.53600951  0.25000000
   0.50000000  0.00000000  0.00000000
   0.00000000  0.50000000  0.00000000
   0.50000000  0.00000000  0.50000000
   0.00000000  0.50000000  0.50000000
   0.72445968  0.28299979  0.03794195
   0.71769533  0.27623543  0.46205805
   0.27554032  0.71700024  0.96205808
   0.28230467  0.72376460  0.53794192
   0.21769533  0.22376457  0.96205808
   0.22445968  0.21700021  0.53794192
   0.78230467  0.77623540  0.03794195
   0.77554032  0.78299976  0.46205805
   0.56829709  0.00630675  0.74661782
   0.06829712  0.49369325  0.24661782
   0.93170291  0.50630678  0.75338218
   0.43170288  0.99369322  0.25338218

 position of ions in cartesian coordinates  (Angst):
   5.39949127  0.19516135  1.92164812
   0.04079956  5.22455525  5.76494436
   2.67934586  2.51469695  5.76494436
   2.76094498  2.90501965  1.92164812
   2.72014542 -0.00000000  0.00000000
   0.00000000  2.70985830  0.00000000
   2.72014542 -0.00000000  3.84329624
   0.00000000  2.70985830  3.84329624
   3.94127138  1.53377863  0.29164428
   3.90447131  1.49711773  3.55165194
   1.49901946  3.88593813  7.39494841
   1.53581953  3.92259903  4.13494032
   1.18432589  1.21274057  7.39494841
   1.22112596  1.17607967  4.13494032
   4.25596495  4.20697587  0.29164428
   4.21916488  4.24363677  3.55165194
   3.09170145  0.03418081  5.73894693
   0.37155619  2.67567749  1.89565069
   5.06873481  2.74403927  5.79094180
   2.34858923  5.38553563  1.94764555



--------------------------------------------------------------------------------------------------------


 k-point   1 :   0.0833 0.0833 0.1250  plane waves:    4121
 k-point   2 :   0.2500 0.0833 0.1250  plane waves:    4122
 k-point   3 :   0.4167 0.0833 0.1250  plane waves:    4115
 k-point   4 :  -0.4167 0.0833 0.1250  plane waves:    4115
 k-point   5 :  -0.2500 0.0833 0.1250  plane waves:    4122
 k-point   6 :  -0.0833 0.0833 0.1250  plane waves:    4121
 k-point   7 :   0.0833 0.2500 0.1250  plane waves:    4117
 k-point   8 :   0.2500 0.2500 0.1250  plane waves:    4108
 k-point   9 :   0.4167 0.2500 0.1250  plane waves:    4121
 k-point  10 :  -0.4167 0.2500 0.1250  plane waves:    4121
 k-point  11 :  -0.2500 0.2500 0.1250  plane waves:    4108
 k-point  12 :  -0.0833 0.2500 0.1250  plane waves:    4117
 k-point  13 :   0.0833 0.4167 0.1250  plane waves:    4109
 k-point  14 :   0.2500 0.4167 0.1250  plane waves:    4126
 k-point  15 :   0.4167 0.4167 0.1250  plane waves:    4128
 k-point  16 :  -0.4167 0.4167 0.1250  plane waves:    4128
 k-point  17 :  -0.2500 0.4167 0.1250  plane waves:    4126
 k-point  18 :  -0.0833 0.4167 0.1250  plane waves:    4109
 k-point  19 :   0.0833-0.4167 0.1250  plane waves:    4109
 k-point  20 :   0.2500-0.4167 0.1250  plane waves:    4126
 k-point  21 :   0.4167-0.4167 0.1250  plane waves:    4128
 k-point  22 :  -0.4167-0.4167 0.1250  plane waves:    4128
 k-point  23 :  -0.2500-0.4167 0.1250  plane waves:    4126
 k-point  24 :  -0.0833-0.4167 0.1250  plane waves:    4109
 k-point  25 :   0.0833-0.2500 0.1250  plane waves:    4117
 k-point  26 :   0.2500-0.2500 0.1250  plane waves:    4108
 k-point  27 :   0.4167-0.2500 0.1250  plane waves:    4121
 k-point  28 :  -0.4167-0.2500 0.1250  plane waves:    4121
 k-point  29 :  -0.2500-0.2500 0.1250  plane waves:    4108
 k-point  30 :  -0.0833-0.2500 0.1250  plane waves:    4117
 k-point  31 :   0.0833-0.0833 0.1250  plane waves:    4121
 k-point  32 :   0.2500-0.0833 0.1250  plane waves:    4122
 k-point  33 :   0.4167-0.0833 0.1250  plane waves:    4115
 k-point  34 :  -0.4167-0.0833 0.1250  plane waves:    4115
 k-point  35 :  -0.2500-0.0833 0.1250  plane waves:    4122
 k-point  36 :  -0.0833-0.0833 0.1250  plane waves:    4121
 k-point  37 :   0.0833 0.0833 0.3750  plane waves:    4106
 k-point  38 :   0.2500 0.0833 0.3750  plane waves:    4113
 k-point  39 :   0.4167 0.0833 0.3750  plane waves:    4112
 k-point  40 :  -0.4167 0.0833 0.3750  plane waves:    4112
 k-point  41 :  -0.2500 0.0833 0.3750  plane waves:    4113
 k-point  42 :  -0.0833 0.0833 0.3750  plane waves:    4106
 k-point  43 :   0.0833 0.2500 0.3750  plane waves:    4112
 k-point  44 :   0.2500 0.2500 0.3750  plane waves:    4112
 k-point  45 :   0.4167 0.2500 0.3750  plane waves:    4123
 k-point  46 :  -0.4167 0.2500 0.3750  plane waves:    4123
 k-point  47 :  -0.2500 0.2500 0.3750  plane waves:    4112
 k-point  48 :  -0.0833 0.2500 0.3750  plane waves:    4112
 k-point  49 :   0.0833 0.4167 0.3750  plane waves:    4108
 k-point  50 :   0.2500 0.4167 0.3750  plane waves:    4117
 k-point  51 :   0.4167 0.4167 0.3750  plane waves:    4136
 k-point  52 :  -0.4167 0.4167 0.3750  plane waves:    4136
 k-point  53 :  -0.2500 0.4167 0.3750  plane waves:    4117
 k-point  54 :  -0.0833 0.4167 0.3750  plane waves:    4108
 k-point  55 :   0.0833-0.4167 0.3750  plane waves:    4108
 k-point  56 :   0.2500-0.4167 0.3750  plane waves:    4117
 k-point  57 :   0.4167-0.4167 0.3750  plane waves:    4136
 k-point  58 :  -0.4167-0.4167 0.3750  plane waves:    4136
 k-point  59 :  -0.2500-0.4167 0.3750  plane waves:    4117
 k-point  60 :  -0.0833-0.4167 0.3750  plane waves:    4108
 k-point  61 :   0.0833-0.2500 0.3750  plane waves:    4112
 k-point  62 :   0.2500-0.2500 0.3750  plane waves:    4112
 k-point  63 :   0.4167-0.2500 0.3750  plane waves:    4123
 k-point  64 :  -0.4167-0.2500 0.3750  plane waves:    4123
 k-point  65 :  -0.2500-0.2500 0.3750  plane waves:    4112
 k-point  66 :  -0.0833-0.2500 0.3750  plane waves:    4112
 k-point  67 :   0.0833-0.0833 0.3750  plane waves:    4106
 k-point  68 :   0.2500-0.0833 0.3750  plane waves:    4113
 k-point  69 :   0.4167-0.0833 0.3750  plane waves:    4112
 k-point  70 :  -0.4167-0.0833 0.3750  plane waves:    4112
 k-point  71 :  -0.2500-0.0833 0.3750  plane waves:    4113
 k-point  72 :  -0.0833-0.0833 0.3750  plane waves:    4106
 k-point  73 :   0.0833 0.0833-0.3750  plane waves:    4106
 k-point  74 :   0.2500 0.0833-0.3750  plane waves:    4113
 k-point  75 :   0.4167 0.0833-0.3750  plane waves:    4112
 k-point  76 :  -0.4167 0.0833-0.3750  plane waves:    4112
 k-point  77 :  -0.2500 0.0833-0.3750  plane waves:    4113
 k-point  78 :  -0.0833 0.0833-0.3750  plane waves:    4106
 k-point  79 :   0.0833 0.2500-0.3750  plane waves:    4112
 k-point  80 :   0.2500 0.2500-0.3750  plane waves:    4112
 k-point  81 :   0.4167 0.2500-0.3750  plane waves:    4123
 k-point  82 :  -0.4167 0.2500-0.3750  plane waves:    4123
 k-point  83 :  -0.2500 0.2500-0.3750  plane waves:    4112
 k-point  84 :  -0.0833 0.2500-0.3750  plane waves:    4112
 k-point  85 :   0.0833 0.4167-0.3750  plane waves:    4108
 k-point  86 :   0.2500 0.4167-0.3750  plane waves:    4117
 k-point  87 :   0.4167 0.4167-0.3750  plane waves:    4136
 k-point  88 :  -0.4167 0.4167-0.3750  plane waves:    4136
 k-point  89 :  -0.2500 0.4167-0.3750  plane waves:    4117
 k-point  90 :  -0.0833 0.4167-0.3750  plane waves:    4108
 k-point  91 :   0.0833-0.4167-0.3750  plane waves:    4108
 k-point  92 :   0.2500-0.4167-0.3750  plane waves:    4117
 k-point  93 :   0.4167-0.4167-0.3750  plane waves:    4136
 k-point  94 :  -0.4167-0.4167-0.3750  plane waves:    4136
 k-point  95 :  -0.2500-0.4167-0.3750  plane waves:    4117
 k-point  96 :  -0.0833-0.4167-0.3750  plane waves:    4108
 k-point  97 :   0.0833-0.2500-0.3750  plane waves:    4112
 k-point  98 :   0.2500-0.2500-0.3750  plane waves:    4112
 k-point  99 :   0.4167-0.2500-0.3750  plane waves:    4123
 k-point 100 :  -0.4167-0.2500-0.3750  plane waves:    4123
 k-point 101 :  -0.2500-0.2500-0.3750  plane waves:    4112
 k-point 102 :  -0.0833-0.2500-0.3750  plane waves:    4112
 k-point 103 :   0.0833-0.0833-0.3750  plane waves:    4106
 k-point 104 :   0.2500-0.0833-0.3750  plane waves:    4113
 k-point 105 :   0.4167-0.0833-0.3750  plane waves:    4112
 k-point 106 :  -0.4167-0.0833-0.3750  plane waves:    4112
 k-point 107 :  -0.2500-0.0833-0.3750  plane waves:    4113
 k-point 108 :  -0.0833-0.0833-0.3750  plane waves:    4106
 k-point 109 :   0.0833 0.0833-0.1250  plane waves:    4121
 k-point 110 :   0.2500 0.0833-0.1250  plane waves:    4122
 k-point 111 :   0.4167 0.0833-0.1250  plane waves:    4115
 k-point 112 :  -0.4167 0.0833-0.1250  plane waves:    4115
 k-point 113 :  -0.2500 0.0833-0.1250  plane waves:    4122
 k-point 114 :  -0.0833 0.0833-0.1250  plane waves:    4121
 k-point 115 :   0.0833 0.2500-0.1250  plane waves:    4117
 k-point 116 :   0.2500 0.2500-0.1250  plane waves:    4108
 k-point 117 :   0.4167 0.2500-0.1250  plane waves:    4121
 k-point 118 :  -0.4167 0.2500-0.1250  plane waves:    4121
 k-point 119 :  -0.2500 0.2500-0.1250  plane waves:    4108
 k-point 120 :  -0.0833 0.2500-0.1250  plane waves:    4117
 k-point 121 :   0.0833 0.4167-0.1250  plane waves:    4109
 k-point 122 :   0.2500 0.4167-0.1250  plane waves:    4126
 k-point 123 :   0.4167 0.4167-0.1250  plane waves:    4128
 k-point 124 :  -0.4167 0.4167-0.1250  plane waves:    4128
 k-point 125 :  -0.2500 0.4167-0.1250  plane waves:    4126
 k-point 126 :  -0.0833 0.4167-0.1250  plane waves:    4109
 k-point 127 :   0.0833-0.4167-0.1250  plane waves:    4109
 k-point 128 :   0.2500-0.4167-0.1250  plane waves:    4126
 k-point 129 :   0.4167-0.4167-0.1250  plane waves:    4128
 k-point 130 :  -0.4167-0.4167-0.1250  plane waves:    4128
 k-point 131 :  -0.2500-0.4167-0.1250  plane waves:    4126
 k-point 132 :  -0.0833-0.4167-0.1250  plane waves:    4109
 k-point 133 :   0.0833-0.2500-0.1250  plane waves:    4117
 k-point 134 :   0.2500-0.2500-0.1250  plane waves:    4108
 k-point 135 :   0.4167-0.2500-0.1250  plane waves:    4121
 k-point 136 :  -0.4167-0.2500-0.1250  plane waves:    4121
 k-point 137 :  -0.2500-0.2500-0.1250  plane waves:    4108
 k-point 138 :  -0.0833-0.2500-0.1250  plane waves:    4117
 k-point 139 :   0.0833-0.0833-0.1250  plane waves:    4121
 k-point 140 :   0.2500-0.0833-0.1250  plane waves:    4122
 k-point 141 :   0.4167-0.0833-0.1250  plane waves:    4115
 k-point 142 :  -0.4167-0.0833-0.1250  plane waves:    4115
 k-point 143 :  -0.2500-0.0833-0.1250  plane waves:    4122
 k-point 144 :  -0.0833-0.0833-0.1250  plane waves:    4121

 maximum and minimum number of plane-waves per node :      4136     4106

 maximum number of plane-waves:      4136
 maximum index in each direction: 
   IXMAX=    9   IYMAX=    9   IZMAX=   12
   IXMIN=   -9   IYMIN=   -9   IZMIN=  -12


 serial   3D FFT for wavefunctions
 parallel 3D FFT for charge:
    minimum data exchange during FFTs selected (reduces bandwidth)


 total amount of memory used by VASP MPI-rank0  1404186. kBytes
=======================================================================

   base      :      30000. kBytes
   nonl-proj :     258615. kBytes
   fftplans  :       8748. kBytes
   grid      :      17624. kBytes
   one-center:        311. kBytes
   wavefun   :    1088888. kBytes

     INWAV:  cpu time      0.3168: real time      0.9943
 initial charge density was supplied:
 number of electron     179.9998632 magnetization 
 keeping initial charge density in first step


--------------------------------------------------------------------------------------------------------


 Maximum index for augmentation-charges        10449 (set IRDMAX)


--------------------------------------------------------------------------------------------------------


 First call to EWALD:  gamma=   0.291
 Maximum number of real-space cells 3x 3x 2
[...]
   13        1.590   3.440   0.000   5.030
   14        1.590   3.442   0.000   5.033
   15        1.590   3.440   0.000   5.030
   16        1.590   3.442   0.000   5.033
   17        1.592   3.443   0.000   5.035
   18        1.592   3.443   0.000   5.035
   19        1.592   3.443   0.000   5.035
   20        1.592   3.443   0.000   5.035
--------------------------------------------------
tot         28.348  89.707  34.173 152.228

    CHARGE:  cpu time     15.0074: real time     25.0663
    MIXING:  cpu time      0.0014: real time      0.0024
    --------------------------------------------
      LOOP:  cpu time    177.6234: real time    187.9353

 eigenvalue-minimisations  : 15672
 total energy-change (2. order) :-0.3661623E-02  (-0.2584472E-05)
 number of electron     180.0000373 magnetization 
 augmentation part       46.7702180 magnetization 

 Free energy of the ion-electron system (eV)
  ---------------------------------------------------
  alpha Z        PSCENC =      1340.43062464
  Ewald energy   TEWEN  =    -15631.08598208
  -Hartree energ DENC   =     -6940.57915393
  -exchange      EXHF   =         0.00000000
  -V(xc)+E(xc)   XCENC  =       810.04521125
  PAW double counting   =     22324.33787872   -22841.89917077
  entropy T*S    EENTRO =         0.00000000
  eigenvalues    EBANDS =     -2046.71181611
  atomic energy  EATOM  =     22842.63706183
  Solvation  Ediel_sol  =         0.00000000
  ---------------------------------------------------
  free energy    TOTEN  =      -142.82534644 eV

  energy without entropy =     -142.82534644  energy(sigma->0) =     -142.82534644


--------------------------------------------------------------------------------------------------------




--------------------------------------- Iteration      1(  40)  ---------------------------------------


    POTLOK:  cpu time      0.0868: real time      0.0873
    SETDIJ:  cpu time      0.0258: real time      0.0258
    EDDIAG:  cpu time     17.5631: real time     17.5904
     EDDAV:  cpu time    144.8461: real time    145.0376
 BZINTS: Fermi energy:    5.028771;  180.000000 electrons
         Band energy:-0.204669E+04;  BLOECHL correction:   -0.074999
       DOS:  cpu time      0.1834: real time      0.1834

 optimized coefficients for linear combined projectors, energy window       1.00     10.00
 species Pr NT=   1 L=   0     0.264    -0.367
 species Pr NT=   1 L=   1     0.778    -0.608
 species Pr NT=   1 L=   2     0.744     0.943
 species Ni NT=   2 L=   1     0.091    -0.852
 species Ni NT=   2 L=   2     0.949     0.966
 species Ni NT=   2 L=   0     0.493     0.942
 species O  NT=   3 L=   0     0.881    -0.999
 species O  NT=   3 L=   1     0.852    -0.943



 total charge

# of ion       s       p       d       tot
------------------------------------------
    1        2.059   5.838   0.700   8.598
    2        2.059   5.838   0.700   8.598
    3        2.059   5.838   0.700   8.597
    4        2.059   5.838   0.700   8.597
    5        0.243   6.241   7.575  14.059
    6        0.268   6.290   8.112  14.670
    7        0.268   6.290   8.113  14.671
    8        0.243   6.241   7.573  14.058
    9        1.590   3.440   0.000   5.030
   10        1.590   3.438   0.000   5.028
   11        1.590   3.440   0.000   5.030
   12        1.590   3.438   0.000   5.028
   13        1.590   3.440   0.000   5.030
   14        1.590   3.442   0.000   5.033
   15        1.590   3.440   0.000   5.030
   16        1.590   3.442   0.000   5.033
   17        1.592   3.443   0.000   5.035
   18        1.592   3.443   0.000   5.035
   19        1.592   3.443   0.000   5.035
   20        1.592   3.443   0.000   5.035
--------------------------------------------------
tot         28.348  89.707  34.173 152.228

    CHARGE:  cpu time     15.0143: real time     25.0733
    MIXING:  cpu time      0.0014: real time      0.0014
    --------------------------------------------
      LOOP:  cpu time    177.7208: real time    187.9993

 eigenvalue-minimisations  : 15672
 total energy-change (2. order) :-0.1822156E-02  (-0.1305291E-05)
 number of electron     179.9999942 magnetization 
 augmentation part       46.7705603 magnetization 

 Free energy of the ion-electron system (eV)
  ---------------------------------------------------
  alpha Z        PSCENC =      1340.43062464
  Ewald energy   TEWEN  =    -15631.08598208
  -Hartree energ DENC   =     -6940.58485537
  -exchange      EXHF   =         0.00000000
  -V(xc)+E(xc)   XCENC  =       810.04513033
  PAW double counting   =     22325.04181508   -22842.61738171
  entropy T*S    EENTRO =         0.00000000
  eigenvalues    EBANDS =     -2046.69358133
  atomic energy  EATOM  =     22842.63706183
  Solvation  Ediel_sol  =         0.00000000
  ---------------------------------------------------
  free energy    TOTEN  =      -142.82716859 eV

  energy without entropy =     -142.82716859  energy(sigma->0) =     -142.82716859


--------------------------------------------------------------------------------------------------------




--------------------------------------- Iteration      1(  41)  ---------------------------------------


    POTLOK:  cpu time      0.0871: real time      0.0871
    SETDIJ:  cpu time      0.0258: real time      0.0258
    EDDIAG:  cpu time     17.5712: real time     17.5807
     EDDAV:  cpu time    144.7477: real time    144.9577
 BZINTS: Fermi energy:    5.028784;  180.000000 electrons
         Band energy:-0.204668E+04;  BLOECHL correction:   -0.075061
       DOS:  cpu time      0.1812: real time      0.1812

 optimized coefficients for linear combined projectors, energy window       1.00     10.00
 species Pr NT=   1 L=   0     0.264    -0.367
 species Pr NT=   1 L=   1     0.778    -0.608
 species Pr NT=   1 L=   2     0.744     0.943
 species Ni NT=   2 L=   1     0.091    -0.852
 species Ni NT=   2 L=   2     0.949     0.966
 species Ni NT=   2 L=   0     0.493     0.942
 species O  NT=   3 L=   0     0.881    -0.999
 species O  NT=   3 L=   1     0.852    -0.943



 total charge

# of ion       s       p       d       tot
------------------------------------------
    1        2.059   5.838   0.700   8.598
    2        2.059   5.838   0.700   8.598
    3        2.059   5.838   0.700   8.597
    4        2.059   5.838   0.700   8.597
    5        0.243   6.241   7.574  14.059
    6        0.268   6.290   8.112  14.670
    7        0.268   6.290   8.113  14.671
    8        0.243   6.241   7.573  14.057
    9        1.590   3.440   0.000   5.030
   10        1.590   3.438   0.000   5.028
   11        1.590   3.440   0.000   5.030
   12        1.590   3.438   0.000   5.028
   13        1.590   3.440   0.000   5.030
   14        1.590   3.442   0.000   5.032
   15        1.590   3.440   0.000   5.030
   16        1.590   3.442   0.000   5.032
   17        1.592   3.443   0.000   5.035
   18        1.592   3.443   0.000   5.035
   19        1.592   3.443   0.000   5.035
   20        1.592   3.443   0.000   5.035
--------------------------------------------------
tot         28.348  89.706  34.173 152.227

    CHARGE:  cpu time     15.0193: real time    399.0871
    MIXING:  cpu time      0.0014: real time      0.0014
    --------------------------------------------
      LOOP:  cpu time    177.6336: real time    561.9210

 eigenvalue-minimisations  : 15672
 total energy-change (2. order) :-0.1288170E-02  (-0.8930185E-06)
 number of electron     180.0000188 magnetization 
 augmentation part       46.7700209 magnetization 

 Free energy of the ion-electron system (eV)
  ---------------------------------------------------
  alpha Z        PSCENC =      1340.43062464
  Ewald energy   TEWEN  =    -15631.08598208
  -Hartree energ DENC   =     -6940.58275931
  -exchange      EXHF   =         0.00000000
  -V(xc)+E(xc)   XCENC  =       810.04458321
  PAW double counting   =     22325.70161318   -22843.29035269
  entropy T*S    EENTRO =         0.00000000
  eigenvalues    EBANDS =     -2046.68324556
  atomic energy  EATOM  =     22842.63706183
  Solvation  Ediel_sol  =         0.00000000
  ---------------------------------------------------
  free energy    TOTEN  =      -142.82845677 eV

  energy without entropy =     -142.82845677  energy(sigma->0) =     -142.82845677


--------------------------------------------------------------------------------------------------------




--------------------------------------- Iteration      1(  42)  ---------------------------------------


    POTLOK:  cpu time      0.0870: real time      0.0914
    SETDIJ:  cpu time      0.0261: real time      0.0261
    EDDIAG:  cpu time     17.6731: real time     17.7002
     EDDAV:  cpu time    144.8661: real time    145.0839
 BZINTS: Fermi energy:    5.028914;  180.000000 electrons
         Band energy:-0.204667E+04;  BLOECHL correction:   -0.074927
       DOS:  cpu time      0.1787: real time      0.1835

 optimized coefficients for linear combined projectors, energy window       1.00     10.00
 species Pr NT=   1 L=   0     0.264    -0.367
 species Pr NT=   1 L=   1     0.778    -0.608
 species Pr NT=   1 L=   2     0.744     0.943
 species Ni NT=   2 L=   1     0.091    -0.852
 species Ni NT=   2 L=   2     0.949     0.966
 species Ni NT=   2 L=   0     0.493     0.942
 species O  NT=   3 L=   0     0.881    -0.999
 species O  NT=   3 L=   1     0.852    -0.943



 total charge

# of ion       s       p       d       tot
------------------------------------------
    1        2.059   5.838   0.700   8.598
    2        2.059   5.838   0.700   8.598
    3        2.059   5.838   0.700   8.597
    4        2.059   5.838   0.700   8.597
    5        0.243   6.241   7.571  14.055
    6        0.268   6.290   8.115  14.673
    7        0.268   6.290   8.116  14.674
    8        0.243   6.241   7.569  14.054
    9        1.590   3.440   0.000   5.030
   10        1.590   3.438   0.000   5.028
   11        1.590   3.440   0.000   5.030
   12        1.590   3.438   0.000   5.028
   13        1.590   3.440   0.000   5.030
   14        1.590   3.442   0.000   5.032
   15        1.590   3.440   0.000   5.030
   16        1.590   3.442   0.000   5.032
   17        1.592   3.443   0.000   5.035
   18        1.592   3.443   0.000   5.035
   19        1.592   3.443   0.000   5.035
   20        1.592   3.443   0.000   5.035
--------------------------------------------------
tot         28.348  89.706  34.172 152.227

    CHARGE:  cpu time     15.0429: real time     25.1170
    MIXING:  cpu time      0.0014: real time      0.0014
    --------------------------------------------
      LOOP:  cpu time    177.8753: real time    188.2034

 eigenvalue-minimisations  : 15672
 total energy-change (2. order) :-0.6932156E-02  (-0.3413697E-05)
 number of electron     180.0000304 magnetization 
 augmentation part       46.7700657 magnetization 

 Free energy of the ion-electron system (eV)
  ---------------------------------------------------
  alpha Z        PSCENC =      1340.43062464
  Ewald energy   TEWEN  =    -15631.08598208
  -Hartree energ DENC   =     -6940.58677075
  -exchange      EXHF   =         0.00000000
  -V(xc)+E(xc)   XCENC  =       810.04464086
  PAW double counting   =     22326.40229588   -22844.00504187
  entropy T*S    EENTRO =         0.00000000
  eigenvalues    EBANDS =     -2046.67221744
  atomic energy  EATOM  =     22842.63706183
  Solvation  Ediel_sol  =         0.00000000
  ---------------------------------------------------
  free energy    TOTEN  =      -142.83538892 eV

  energy without entropy =     -142.83538892  energy(sigma->0) =     -142.83538892


--------------------------------------------------------------------------------------------------------




--------------------------------------- Iteration      1(  43)  ---------------------------------------


    POTLOK:  cpu time      0.0869: real time      0.0869
    SETDIJ:  cpu time      0.0257: real time      0.0257
    EDDIAG:  cpu time     17.5725: real time     17.6000
     EDDAV:  cpu time    144.8573: real time    145.0755
 BZINTS: Fermi energy:    5.028994;  180.000000 electrons
         Band energy:-0.204666E+04;  BLOECHL correction:   -0.074943
       DOS:  cpu time      0.1812: real time      0.1827

 optimized coefficients for linear combined projectors, energy window       1.00     10.00
 species Pr NT=   1 L=   0     0.264    -0.367
 species Pr NT=   1 L=   1     0.778    -0.608
 species Pr NT=   1 L=   2     0.744     0.943
 species Ni NT=   2 L=   1     0.091    -0.852
 species Ni NT=   2 L=   2     0.949     0.966
 species Ni NT=   2 L=   0     0.493     0.942
 species O  NT=   3 L=   0     0.881    -0.999
 species O  NT=   3 L=   1     0.852    -0.943



 total charge

# of ion       s       p       d       tot
------------------------------------------
    1        2.059   5.838   0.700   8.598
    2        2.059   5.838   0.700   8.598
    3        2.059   5.838   0.700   8.597
    4        2.059   5.838   0.700   8.597
    5        0.243   6.241   7.570  14.054
    6        0.268   6.290   8.116  14.674
    7        0.268   6.290   8.117  14.675
    8        0.243   6.241   7.569  14.053
    9        1.590   3.440   0.000   5.030
   10        1.590   3.438   0.000   5.028
   11        1.590   3.440   0.000   5.030
   12        1.590   3.438   0.000   5.028
   13        1.590   3.440   0.000   5.030
   14        1.590   3.442   0.000   5.032
   15        1.590   3.440   0.000   5.030
   16        1.590   3.442   0.000   5.032
   17        1.592   3.443   0.000   5.035
   18        1.592   3.443   0.000   5.035
   19        1.592   3.443   0.000   5.035
   20        1.592   3.443   0.000   5.035
--------------------------------------------------
tot         28.348  89.706  34.172 152.227

    CHARGE:  cpu time     15.0581: real time     27.1252
    MIXING:  cpu time      0.0014: real time      0.0014
    --------------------------------------------
      LOOP:  cpu time    177.7831: real time    190.0974

 eigenvalue-minimisations  : 15672
 total energy-change (2. order) :-0.2369847E-02  (-0.1693794E-05)
 number of electron     180.0000281 magnetization 
 augmentation part       46.7700902 magnetization 

 Free energy of the ion-electron system (eV)
  ---------------------------------------------------
  alpha Z        PSCENC =      1340.43062464
  Ewald energy   TEWEN  =    -15631.08598208
  -Hartree energ DENC   =     -6940.58997495
  -exchange      EXHF   =         0.00000000
  -V(xc)+E(xc)   XCENC  =       810.04454906
  PAW double counting   =     22327.08010007   -22844.69632485
  entropy T*S    EENTRO =         0.00000000
  eigenvalues    EBANDS =     -2046.65781250
  atomic energy  EATOM  =     22842.63706183
  Solvation  Ediel_sol  =         0.00000000
  ---------------------------------------------------
  free energy    TOTEN  =      -142.83775877 eV

  energy without entropy =     -142.83775877  energy(sigma->0) =     -142.83775877


--------------------------------------------------------------------------------------------------------




--------------------------------------- Iteration      1(  44)  ---------------------------------------


    POTLOK:  cpu time      0.0871: real time      0.0872
    SETDIJ:  cpu time      0.0261: real time      0.0261
    EDDIAG:  cpu time     17.6513: real time     17.6807
     EDDAV:  cpu time    144.7401: real time    144.9669
 BZINTS: Fermi energy:    5.029050;  180.000000 electrons
         Band energy:-0.204665E+04;  BLOECHL correction:   -0.074986
       DOS:  cpu time      0.1836: real time      0.1836

 optimized coefficients for linear combined projectors, energy window       1.00     10.00
 species Pr NT=   1 L=   0     0.264    -0.367
 species Pr NT=   1 L=   1     0.778    -0.608
 species Pr NT=   1 L=   2     0.744     0.943
 species Ni NT=   2 L=   1     0.091    -0.852
 species Ni NT=   2 L=   2     0.949     0.966
 species Ni NT=   2 L=   0     0.493     0.942
 species O  NT=   3 L=   0     0.881    -0.999
 species O  NT=   3 L=   1     0.852    -0.943



 total charge

# of ion       s       p       d       tot
------------------------------------------
    1        2.059   5.838   0.700   8.598
    2        2.059   5.838   0.700   8.598
    3        2.059   5.838   0.700   8.597
    4        2.059   5.838   0.700   8.597
    5        0.243   6.241   7.570  14.054
    6        0.268   6.290   8.116  14.674
    7        0.268   6.290   8.117  14.675
    8        0.243   6.241   7.568  14.053
    9        1.590   3.440   0.000   5.030
   10        1.590   3.438   0.000   5.028
   11        1.590   3.440   0.000   5.030
   12        1.590   3.438   0.000   5.028
   13        1.590   3.440   0.000   5.030
   14        1.590   3.442   0.000   5.032
   15        1.590   3.440   0.000   5.030
   16        1.590   3.442   0.000   5.032
   17        1.592   3.443   0.000   5.035
   18        1.592   3.443   0.000   5.035
   19        1.592   3.443   0.000   5.035
   20        1.592   3.443   0.000   5.035
--------------------------------------------------
tot         28.348  89.706  34.172 152.226

    CHARGE:  cpu time     15.0106: real time     23.0916
    MIXING:  cpu time      0.0014: real time      0.0014
    --------------------------------------------
      LOOP:  cpu time    177.7002: real time    186.0375

 eigenvalue-minimisations  : 15672
 total energy-change (2. order) :-0.1415074E-02  (-0.7187040E-06)
 number of electron     179.9999934 magnetization 
 augmentation part       46.7702885 magnetization 

 Free energy of the ion-electron system (eV)
  ---------------------------------------------------
  alpha Z        PSCENC =      1340.43062464
  Ewald energy   TEWEN  =    -15631.08598208
  -Hartree energ DENC   =     -6940.59089509
  -exchange      EXHF   =         0.00000000
  -V(xc)+E(xc)   XCENC  =       810.04428236
  PAW double counting   =     22327.72931862   -22845.35844443
  entropy T*S    EENTRO =         0.00000000
  eigenvalues    EBANDS =     -2046.64513969
  atomic energy  EATOM  =     22842.63706183
  Solvation  Ediel_sol  =         0.00000000
  ---------------------------------------------------
  free energy    TOTEN  =      -142.83917384 eV

  energy without entropy =     -142.83917384  energy(sigma->0) =     -142.83917384


--------------------------------------------------------------------------------------------------------




--------------------------------------- Iteration      1(  45)  ---------------------------------------


    POTLOK:  cpu time      0.0870: real time      0.0870
    SETDIJ:  cpu time      0.0257: real time      0.0258
    EDDIAG:  cpu time     17.5683: real time     17.5948
     EDDAV:  cpu time    144.8709: real time    145.0969
 BZINTS: Fermi energy:    5.029046;  180.000000 electrons
         Band energy:-0.204664E+04;  BLOECHL correction:   -0.075034
       DOS:  cpu time      0.1773: real time      0.1773

 optimized coefficients for linear combined projectors, energy window       1.00     10.00
 species Pr NT=   1 L=   0     0.264    -0.367
 species Pr NT=   1 L=   1     0.778    -0.608
 species Pr NT=   1 L=   2     0.744     0.943
 species Ni NT=   2 L=   1     0.091    -0.852
 species Ni NT=   2 L=   2     0.949     0.966
 species Ni NT=   2 L=   0     0.493     0.942
 species O  NT=   3 L=   0     0.881    -0.999
 species O  NT=   3 L=   1     0.852    -0.943



 total charge

# of ion       s       p       d       tot
------------------------------------------
    1        2.059   5.838   0.700   8.598
    2        2.059   5.838   0.700   8.598
    3        2.059   5.838   0.700   8.597
    4        2.059   5.838   0.700   8.597
    5        0.243   6.241   7.570  14.054
    6        0.268   6.290   8.116  14.675
    7        0.268   6.290   8.117  14.676
    8        0.243   6.241   7.568  14.053
    9        1.590   3.440   0.000   5.030
   10        1.590   3.438   0.000   5.028
   11        1.590   3.440   0.000   5.030
