*** Starting pyTRIQS on Thu Apr  5 11:47:42 CEST 2018 ***
  Number of cores: 72
  Number of iterations: 100
  Script name: /apps/monch/p504/dmatl-theory-git/vasp-dmft-csc/dmft_csc.py
 running on   72 total cores
 distrk:  each k-point on   72 cores,    1 groups
 distr:  one band on    6 cores,   12 groups
 using from now: INCAR     
 vasp.5.4.2 02Dez15 (build Feb 15 2018 14:07:33) complex                        
  
 POSCAR found type information on POSCAR  Sr V  O 
 POSCAR found :  3 types and       5 ions
 LDA part: xc-table for Pade appr. of Perdew
 POSCAR, INCAR and KPOINTS ok, starting setup
 WARNING: small aliasing (wrap around) errors must be expected
 FFT: planning ...
 WAVECAR not read
 charge-density read from file: SrVO3                                   
successfully read dmft_config.ini file
General parameters:
dc_on               True
dft_filename        vasp
prec_mu             0.0001
n_iter_dmft_first   5   
block_threshold     0.0001
occ_conv_it         10  
n_iter_dft          7   
dc_dmft             True
fixed_mu            False
spin_deg            True
store_dft_eigenvals True
occ_conv_crit       -1  
load_sigma_iter     -1  
J                   [0.65]
h5_save_freq        5   
calc_energies       True
n_LegCoeff          35  
n_iter_dmft         2   
U                   [6.5]
h_field             0.0 
sigma_mix           0.9 
dc_type             1   
load_sigma          False
beta                40.0
sampling_iterations 0   
h_int_type          2   
shell_mapping       [1] 
spin_names          ['up', 'down']
Solver parameters:
imag_threshold      1e-08
n_warmup_cycles     10000
length_cycle        250 
measure_g_l         True
perform_tail_fit    False
move_double         True
n_cycles            166666
measure_g_tau       True
  Waiting for VASP lock to appear...
  Waiting for VASP lock to disappear...
 entering main loop
       N       E                     dE             d eps       ncg     rms          rms(c)
DAV:   1     0.160612002650E+03    0.16061E+03   -0.11449E+04106176   0.110E+03  
 writing the density matrix to GAMMA
 
DAV:   2    -0.268323188980E+02   -0.18744E+03   -0.17951E+03133500   0.257E+02  
 writing the density matrix to GAMMA
 
DAV:   3    -0.387189851416E+02   -0.11887E+02   -0.11824E+02121836   0.736E+01  
 writing the density matrix to GAMMA
 
DAV:   4    -0.390815824013E+02   -0.36260E+00   -0.36243E+00179040   0.113E+01  
 writing the density matrix to GAMMA
 
DAV:   5    -0.390848697517E+02   -0.32874E-02   -0.32876E-02119724   0.966E-01  
 writing the density matrix to GAMMA
 
DAV:   6    -0.390849768469E+02   -0.10710E-03   -0.10710E-03171336   0.132E-01  
 writing the density matrix to GAMMA
 
DAV:   7    -0.390849779018E+02   -0.10549E-05   -0.10554E-05119436   0.146E-02  
 writing the density matrix to GAMMA
 
DAV:   8    -0.390849779156E+02   -0.13770E-07   -0.13774E-07123096   0.173E-03  
 writing the density matrix to GAMMA
 
DAV:   9    -0.390849779192E+02   -0.36039E-08   -0.36055E-08 89532   0.923E-04  
 writing the density matrix to GAMMA
 
DAV:  10    -0.390849779212E+02   -0.20418E-08   -0.20579E-08113016   0.736E-04  
 writing the density matrix to GAMMA
 
DAV:  11    -0.390849779226E+02   -0.13483E-08   -0.13325E-08 81732   0.542E-04  
 writing the density matrix to GAMMA
 
DAV:  12    -0.390849779234E+02   -0.85629E-09   -0.87538E-09 91248   0.469E-04  
 writing the density matrix to GAMMA
   Lock file will be deleted
Read parameters:
0  ->  {'m': 0, 'l': 2, 'isite': 2, 'label': 'dxy'}
1  ->  {'m': 1, 'l': 2, 'isite': 2, 'label': 'dyz'}
2  ->  {'m': 2, 'l': 2, 'isite': 2, 'label': 'dz2'}
3  ->  {'m': 3, 'l': 2, 'isite': 2, 'label': 'dxz'}
4  ->  {'m': 4, 'l': 2, 'isite': 2, 'label': 'dx2-y2'}
  Found POSCAR, title line: SrVO3
  Total number of ions: 5
  Number of types: 3
  Number of ions for each type: [1, 1, 3]

    Total number of k-points: 2197
   Total number of tetrahedra: 13182
!!! WARNING !!!: Error reading from EIGENVAL, trying LOCPROJ
eigvals from LOCPROJ

  Spin: 1
  Site: 2
  Density matrix                                                Overlap
   0.5873057   0.0004415  -0.0000861   0.0004415   0.0000000       0.9349937   0.0000009  -0.0000008   0.0000016   0.0000008
   0.0004415   0.5870063  -0.0000430  -0.0004928   0.0000789       0.0000009   0.9349804  -0.0000003   0.0000026   0.0000006
  -0.0000861  -0.0000430   0.5806295  -0.0000430  -0.0000000      -0.0000008  -0.0000003   0.9761828   0.0000019  -0.0000002
   0.0004415  -0.0004928  -0.0000430   0.5870069  -0.0000789       0.0000016   0.0000026   0.0000019   0.9349981   0.0000008
   0.0000000   0.0000789  -0.0000000  -0.0000789   0.5806273       0.0000008   0.0000006  -0.0000002   0.0000008   0.9761825

  Generating 1 shell...

    Shell         : 1
    Orbital l     : 2
    Number of ions: 1
    Dimension     : 3
Density matrix:
  Site 1
   0.3335515   0.0005935   0.0005935
   0.0005935   0.3331597  -0.0006604
   0.0005935  -0.0006604   0.3331604
    trace:  0.999871660021

  Impurity density: 0.999871660021

Overlap:
  Site 1
[[ 1. -0.  0.]
 [-0.  1.  0.]
 [ 0.  0.  1.]]

Local Hamiltonian:
  Site 1
   0.5765222  -0.0000000   0.0000000
  -0.0000000   0.5765224  -0.0000000
   0.0000000  -0.0000000   0.5765224
  Storing ctrl-file...
  Storing PLO-group file 'vasp.pg1'...
  Density within window: 0.995989959027
Read parameters:
0  ->  {'m': 0, 'l': 2, 'isite': 2, 'label': 'dxy'}
1  ->  {'m': 1, 'l': 2, 'isite': 2, 'label': 'dyz'}
2  ->  {'m': 2, 'l': 2, 'isite': 2, 'label': 'dz2'}
3  ->  {'m': 3, 'l': 2, 'isite': 2, 'label': 'dxz'}
4  ->  {'m': 4, 'l': 2, 'isite': 2, 'label': 'dx2-y2'}
  Found POSCAR, title line: SrVO3
  Total number of ions: 5
  Number of types: 3
  Number of ions for each type: [1, 1, 3]

    Total number of k-points: 2197
   Total number of tetrahedra: 13182
!!! WARNING !!!: Error reading from EIGENVAL, trying LOCPROJ
##########################
dft cycle took   697.3372 seconds
calling dmft_cycle
DMFT iteration 0 / 100
##########################
Reading input from vasp.ctrl...
{
    "ngroups": 1,
    "nk": 2197,
    "ns": 1,
    "nc_flag": 0
}

  No. of inequivalent shells: 1
Dichotomy adjustment of Chemical Potential to obtain Total Density = 0.995990 +/- 0.000100
    Chemical Potential = 0.500000  
    Total Density = 2.205900
    0.000000 < Chemical Potential < 0.500000
    0.943602 < Total Density < 2.205900
    0.020751 < Chemical Potential < 0.500000
    0.987852 < Total Density < 2.205900
    0.020751 < Chemical Potential < 0.023953
    0.987852 < Total Density < 0.996071
    Chemical Potential found in 3 iterations : 
    Total Density = 0.996071;Chemical Potential = 0.023953
Assuming U=6.50 for all correlated shells
Assuming J=0.65 for all correlated shells
*** Constructing the interaction Hamiltonian for shell 0 ***
*** Using the Kanamori Hamiltonian (with spin-flip and pair-hopping) ***
Dichotomy adjustment of Chemical Potential to obtain Total Density = 0.995990 +/- 0.000100
    0.023953 < Chemical Potential < 0.023953
    0.996071 < Total Density < 0.996071
    Chemical Potential found in 0 iterations : 
    Total Density = 0.996071;Chemical Potential = 0.023953
observables for impurity 0 are written to file observables_imp0.dat

*** System information summary ***
rot_mat[ 0]          real part                  imaginary part      
             1.00000  0.00000  0.00000    0.00000  0.00000  0.00000
             0.00000  1.00000  0.00000    0.00000  0.00000  0.00000
             0.00000  0.00000  1.00000    0.00000  0.00000  0.00000
 number of correlated shell types: 1
 -- Shell type #  0 : [0]
  | block struct. : {'up_2': [0], 'up_0': [0], 'up_1': [0], 'down_2': [0], 'down_1': [0], 'down_0': [0]}
  | deg. orbitals : [['up_2', 'up_0', 'up_1', 'down_2', 'down_1', 'down_0']]
Inverse temperature beta = 40.0
Sampling G(iw) in Legendre space with 35 coefficients
Kinetic energy contribution dft part: -0.391466016064
total density for imp 0 for DC calc: 0.995948991817
DC for shell 0 and block up = 2.578935
DC for shell 0 and block down = 2.578935
DC energy for shell 0 = -0.0104899535409
5 DMFT cycles requested. Starting with iteration 0.
################################################################################
Doing ITERATION: 0 / 4

*** Correlated Shell type #  0 : Total charge of impurity problem = 0.995949
Density matrix:
up_2
[[ 0.16599147]]
up_0
[[ 0.16599155]]
up_1
[[ 0.16599147]]
down_2
[[ 0.16599147]]
down_1
[[ 0.16599147]]
down_0
[[ 0.16599155]]


Solving the impurity problem for shell 0 ...
The local Hamiltonian of the problem:
-2.02637*C^+(down_0,0)C(down_0,0) + -2.02637*C^+(down_1,0)C(down_1,0) + -2.02637*C^+(down_2,0)C(down_2,0) + -2.02637*C^+(up_0,0)C(up_0,0) + -2.02637*C^+(up_1,0)C(up_1,0) + -2.02637*C^+(up_2,0)C(up_2,0) + 4.55*C^+(down_0,0)C^+(down_1,0)C(down_1,0)C(down_0,0) + 4.55*C^+(down_0,0)C^+(down_2,0)C(down_2,0)C(down_0,0) + 0.65*C^+(down_0,0)C^+(up_0,0)C(up_2,0)C(down_2,0) + 0.65*C^+(down_0,0)C^+(up_0,0)C(up_1,0)C(down_1,0) + 6.5*C^+(down_0,0)C^+(up_0,0)C(up_0,0)C(down_0,0) + 5.2*C^+(down_0,0)C^+(up_1,0)C(up_1,0)C(down_0,0) + 0.65*C^+(down_0,0)C^+(up_1,0)C(up_0,0)C(down_1,0) + 5.2*C^+(down_0,0)C^+(up_2,0)C(up_2,0)C(down_0,0) + 0.65*C^+(down_0,0)C^+(up_2,0)C(up_0,0)C(down_2,0) + 4.55*C^+(down_1,0)C^+(down_2,0)C(down_2,0)C(down_1,0) + 0.65*C^+(down_1,0)C^+(up_0,0)C(up_1,0)C(down_0,0) + 5.2*C^+(down_1,0)C^+(up_0,0)C(up_0,0)C(down_1,0) + 0.65*C^+(down_1,0)C^+(up_1,0)C(up_2,0)C(down_2,0) + 6.5*C^+(down_1,0)C^+(up_1,0)C(up_1,0)C(down_1,0) + 0.65*C^+(down_1,0)C^+(up_1,0)C(up_0,0)C(down_0,0) + 5.2*C^+(down_1,0)C^+(up_2,0)C(up_2,0)C(down_1,0) + 0.65*C^+(down_1,0)C^+(up_2,0)C(up_1,0)C(down_2,0) + 0.65*C^+(down_2,0)C^+(up_0,0)C(up_2,0)C(down_0,0) + 5.2*C^+(down_2,0)C^+(up_0,0)C(up_0,0)C(down_2,0) + 0.65*C^+(down_2,0)C^+(up_1,0)C(up_2,0)C(down_1,0) + 5.2*C^+(down_2,0)C^+(up_1,0)C(up_1,0)C(down_2,0) + 6.5*C^+(down_2,0)C^+(up_2,0)C(up_2,0)C(down_2,0) + 0.65*C^+(down_2,0)C^+(up_2,0)C(up_1,0)C(down_1,0) + 0.65*C^+(down_2,0)C^+(up_2,0)C(up_0,0)C(down_0,0) + 4.55*C^+(up_0,0)C^+(up_1,0)C(up_1,0)C(up_0,0) + 4.55*C^+(up_0,0)C^+(up_2,0)C(up_2,0)C(up_0,0) + 4.55*C^+(up_1,0)C^+(up_2,0)C(up_2,0)C(up_1,0)
Using autopartition algorithm to partition the local Hilbert space
Found 44 subspaces.

Warming up ...
1%; 2%; 3%; 4%; 5%; 6%; 7%; 8%; 9%; 10%; 11%; 12%; 13%; 14%; 15%; 16%; 17%; 18%; 19%; 20%; 21%; 22%; 23%; 24%; 25%; 26%; 27%; 28%; 29%; 30%; 31%; 32%; 33%; 34%; 35%; 36%; 37%; 38%; 39%; 40%; 41%; 42%; 43%; 44%; 45%; 46%; 47%; 48%; 49%; 50%; 51%; 52%; 53%; 54%; 55%; 56%; 57%; 58%; 59%; 60%; 61%; 62%; 63%; 64%; 65%; 66%; 67%; 68%; 69%; 70%; 71%; 72%; 73%; 74%; 75%; 76%; 77%; 78%; 79%; 80%; 81%; 82%; 83%; 84%; 85%; 86%; 87%; 88%; 89%; 90%; 91%; 92%; 93%; 94%; 95%; 96%; 97%; 98%; 99%; 100%; 
Accumulating ...
1%; 2%; 3%; 4%; 5%; 6%; 7%; 8%; 9%; 10%; 11%; 12%; 13%; 14%; 15%; 16%; 17%; 18%; 19%; 20%; 21%; 22%; 23%; 24%; 25%; 26%; 27%; 28%; 29%; 30%; 31%; 32%; 33%; 34%; 35%; 36%; 37%; 38%; 39%; 40%; 41%; 42%; 43%; 44%; 45%; 46%; 47%; 48%; 49%; 50%; 51%; 52%; 53%; 54%; 55%; 56%; 57%; 58%; 59%; 60%; 61%; 62%; 63%; 64%; 65%; 66%; 67%; 68%; 69%; 70%; 71%; 72%; 73%; 74%; 75%; 76%; 77%; 78%; 79%; 80%; 81%; 82%; 83%; 84%; 85%; 86%; 87%; 88%; 89%; 90%; 91%; 92%; 93%; 94%; 95%; 96%; 97%; 98%; 99%; 100%; 

[Node 0] Acceptance rate for all moves:
Move set Insert two operators: 0.0297236
  Move  Insert Delta_down_0: 0.0297204
  Move  Insert Delta_down_1: 0.0297296
  Move  Insert Delta_down_2: 0.0297339
  Move  Insert Delta_up_0: 0.0297221
  Move  Insert Delta_up_1: 0.0297193
  Move  Insert Delta_up_2: 0.0297161
Move set Remove two operators: 0.0297211
  Move  Remove Delta_down_0: 0.0297168
  Move  Remove Delta_down_1: 0.0297239
  Move  Remove Delta_down_2: 0.0297325
  Move  Remove Delta_up_0: 0.0297167
  Move  Remove Delta_up_1: 0.0297204
  Move  Remove Delta_up_2: 0.0297164
Move set Insert four operators: 0.00155754
  Move  Insert Delta_down_0_down_0: 0.00219068
  Move  Insert Delta_down_0_down_1: 0.00143398
  Move  Insert Delta_down_0_down_2: 0.00143902
  Move  Insert Delta_down_0_up_0: 0.00142595
  Move  Insert Delta_down_0_up_1: 0.00143037
  Move  Insert Delta_down_0_up_2: 0.00143244
  Move  Insert Delta_down_1_down_0: 0.00143277
  Move  Insert Delta_down_1_down_1: 0.00219232
  Move  Insert Delta_down_1_down_2: 0.00143043
  Move  Insert Delta_down_1_up_0: 0.0014296
  Move  Insert Delta_down_1_up_1: 0.00143134
  Move  Insert Delta_down_1_up_2: 0.00142553
  Move  Insert Delta_down_2_down_0: 0.00143686
  Move  Insert Delta_down_2_down_1: 0.00143415
  Move  Insert Delta_down_2_down_2: 0.00219365
  Move  Insert Delta_down_2_up_0: 0.00143222
  Move  Insert Delta_down_2_up_1: 0.00142956
  Move  Insert Delta_down_2_up_2: 0.00143468
  Move  Insert Delta_up_0_down_0: 0.00143663
  Move  Insert Delta_up_0_down_1: 0.00142211
  Move  Insert Delta_up_0_down_2: 0.00142469
  Move  Insert Delta_up_0_up_0: 0.00218961
  Move  Insert Delta_up_0_up_1: 0.00143193
  Move  Insert Delta_up_0_up_2: 0.00143403
  Move  Insert Delta_up_1_down_0: 0.00142585
  Move  Insert Delta_up_1_down_1: 0.00143168
  Move  Insert Delta_up_1_down_2: 0.00142322
  Move  Insert Delta_up_1_up_0: 0.00143269
  Move  Insert Delta_up_1_up_1: 0.00219539
  Move  Insert Delta_up_1_up_2: 0.00143184
  Move  Insert Delta_up_2_down_0: 0.00142576
  Move  Insert Delta_up_2_down_1: 0.00142552
  Move  Insert Delta_up_2_down_2: 0.00142528
  Move  Insert Delta_up_2_up_0: 0.00143286
  Move  Insert Delta_up_2_up_1: 0.00142944
  Move  Insert Delta_up_2_up_2: 0.00219755
Move set Remove four operators: 0.00155676
  Move  Remove Delta_down_0_down_0: 0.00219815
  Move  Remove Delta_down_0_down_1: 0.0014302
  Move  Remove Delta_down_0_down_2: 0.00142982
  Move  Remove Delta_down_0_up_0: 0.00142572
  Move  Remove Delta_down_0_up_1: 0.00142451
  Move  Remove Delta_down_0_up_2: 0.00142682
  Move  Remove Delta_down_1_down_0: 0.00143846
  Move  Remove Delta_down_1_down_1: 0.0021984
  Move  Remove Delta_down_1_down_2: 0.00143802
  Move  Remove Delta_down_1_up_0: 0.001429
  Move  Remove Delta_down_1_up_1: 0.00142317
  Move  Remove Delta_down_1_up_2: 0.00141919
  Move  Remove Delta_down_2_down_0: 0.00143467
  Move  Remove Delta_down_2_down_1: 0.00143251
  Move  Remove Delta_down_2_down_2: 0.00219305
  Move  Remove Delta_down_2_up_0: 0.00142504
  Move  Remove Delta_down_2_up_1: 0.00142843
  Move  Remove Delta_down_2_up_2: 0.00143056
  Move  Remove Delta_up_0_down_0: 0.00143056
  Move  Remove Delta_up_0_down_1: 0.00142193
  Move  Remove Delta_up_0_down_2: 0.00142526
  Move  Remove Delta_up_0_up_0: 0.00219577
  Move  Remove Delta_up_0_up_1: 0.00143374
  Move  Remove Delta_up_0_up_2: 0.00143275
  Move  Remove Delta_up_1_down_0: 0.00142511
  Move  Remove Delta_up_1_down_1: 0.0014333
  Move  Remove Delta_up_1_down_2: 0.0014235
  Move  Remove Delta_up_1_up_0: 0.00142713
  Move  Remove Delta_up_1_up_1: 0.0021961
  Move  Remove Delta_up_1_up_2: 0.00143106
  Move  Remove Delta_up_2_down_0: 0.00142805
  Move  Remove Delta_up_2_down_1: 0.0014251
  Move  Remove Delta_up_2_down_2: 0.00142967
  Move  Remove Delta_up_2_up_0: 0.00143145
  Move  Remove Delta_up_2_up_1: 0.00143349
  Move  Remove Delta_up_2_up_2: 0.00219389
Move  Shift one operator: 0.265661
[Node 0] Simulation lasted: 458 seconds
[Node 0] Number of measures: 166666
Total number of measures: 59999760
Average sign: 0.99998
solver took   495.6315 seconds
Total charge convergency of impurity problem : 0.000593
Density matrix:
up_2
[[ 0.16553824]]
up_0
[[ 0.16698264]]
up_1
[[ 0.16548308]]
down_2
[[ 0.16597261]]
down_1
[[ 0.16648662]]
down_0
[[ 0.16607874]]


*** Post-processing the solver output ***
Total charge of all correlated shells : 0.996542
DC for shell 0 and block up = 2.582018
DC for shell 0 and block down = 2.582018
DC energy for shell 0 = -0.00895989464445
Dichotomy adjustment of Chemical Potential to obtain Total Density = 0.995990 +/- 0.000100
    Chemical Potential = 0.523953  
    Total Density = 1.501739
    0.023953 < Chemical Potential < 0.523953
    0.940542 < Total Density < 1.501739
    0.073355 < Chemical Potential < 0.523953
    0.983830 < Total Density < 1.501739
    0.083934 < Chemical Potential < 0.523953
    0.993692 < Total Density < 1.501739
    0.085924 < Chemical Potential < 0.523953
    0.995572 < Total Density < 1.501739
    0.086286 < Chemical Potential < 0.523953
    0.995914 < Total Density < 1.501739
    Chemical Potential found in 5 iterations : 
    Total Density = 0.995914;Chemical Potential = 0.086286
Kinetic energy contribution dmft part: 0.119891307801
energy contribution of correlated shell 0 = 0.329365202088
Trace of Density Matrix: {'down': (-0.0020427848685194185-1.782249068897168e-17j), 'up': (-0.0020427848685194185-1.782249068897168e-17j)}
band energy correction: 0.517375474965
Writing direct observables to text file
################################################################################
Doing ITERATION: 1 / 4

*** Correlated Shell type #  0 : Total charge of impurity problem = 0.995834
Density matrix:
up_2
[[ 0.16597238]]
up_0
[[ 0.1659724]]
up_1
[[ 0.16597238]]
down_2
[[ 0.16597238]]
down_1
[[ 0.16597238]]
down_0
[[ 0.1659724]]


Solving the impurity problem for shell 0 ...
The local Hamiltonian of the problem:
-2.09178*C^+(down_0,0)C(down_0,0) + -2.09178*C^+(down_1,0)C(down_1,0) + -2.09178*C^+(down_2,0)C(down_2,0) + -2.09178*C^+(up_0,0)C(up_0,0) + -2.09178*C^+(up_1,0)C(up_1,0) + -2.09178*C^+(up_2,0)C(up_2,0) + 4.55*C^+(down_0,0)C^+(down_1,0)C(down_1,0)C(down_0,0) + 4.55*C^+(down_0,0)C^+(down_2,0)C(down_2,0)C(down_0,0) + 0.65*C^+(down_0,0)C^+(up_0,0)C(up_2,0)C(down_2,0) + 0.65*C^+(down_0,0)C^+(up_0,0)C(up_1,0)C(down_1,0) + 6.5*C^+(down_0,0)C^+(up_0,0)C(up_0,0)C(down_0,0) + 5.2*C^+(down_0,0)C^+(up_1,0)C(up_1,0)C(down_0,0) + 0.65*C^+(down_0,0)C^+(up_1,0)C(up_0,0)C(down_1,0) + 5.2*C^+(down_0,0)C^+(up_2,0)C(up_2,0)C(down_0,0) + 0.65*C^+(down_0,0)C^+(up_2,0)C(up_0,0)C(down_2,0) + 4.55*C^+(down_1,0)C^+(down_2,0)C(down_2,0)C(down_1,0) + 0.65*C^+(down_1,0)C^+(up_0,0)C(up_1,0)C(down_0,0) + 5.2*C^+(down_1,0)C^+(up_0,0)C(up_0,0)C(down_1,0) + 0.65*C^+(down_1,0)C^+(up_1,0)C(up_2,0)C(down_2,0) + 6.5*C^+(down_1,0)C^+(up_1,0)C(up_1,0)C(down_1,0) + 0.65*C^+(down_1,0)C^+(up_1,0)C(up_0,0)C(down_0,0) + 5.2*C^+(down_1,0)C^+(up_2,0)C(up_2,0)C(down_1,0) + 0.65*C^+(down_1,0)C^+(up_2,0)C(up_1,0)C(down_2,0) + 0.65*C^+(down_2,0)C^+(up_0,0)C(up_2,0)C(down_0,0) + 5.2*C^+(down_2,0)C^+(up_0,0)C(up_0,0)C(down_2,0) + 0.65*C^+(down_2,0)C^+(up_1,0)C(up_2,0)C(down_1,0) + 5.2*C^+(down_2,0)C^+(up_1,0)C(up_1,0)C(down_2,0) + 6.5*C^+(down_2,0)C^+(up_2,0)C(up_2,0)C(down_2,0) + 0.65*C^+(down_2,0)C^+(up_2,0)C(up_1,0)C(down_1,0) + 0.65*C^+(down_2,0)C^+(up_2,0)C(up_0,0)C(down_0,0) + 4.55*C^+(up_0,0)C^+(up_1,0)C(up_1,0)C(up_0,0) + 4.55*C^+(up_0,0)C^+(up_2,0)C(up_2,0)C(up_0,0) + 4.55*C^+(up_1,0)C^+(up_2,0)C(up_2,0)C(up_1,0)
Using autopartition algorithm to partition the local Hilbert space
Found 44 subspaces.

Warming up ...
1%; 2%; 3%; 4%; 5%; 6%; 7%; 8%; 9%; 10%; 11%; 12%; 13%; 14%; 15%; 16%; 17%; 18%; 19%; 20%; 21%; 22%; 23%; 24%; 25%; 26%; 27%; 28%; 29%; 30%; 31%; 32%; 33%; 34%; 35%; 36%; 37%; 38%; 39%; 40%; 41%; 42%; 43%; 44%; 45%; 46%; 47%; 48%; 49%; 50%; 51%; 52%; 53%; 54%; 55%; 56%; 57%; 58%; 59%; 60%; 61%; 62%; 63%; 64%; 65%; 66%; 67%; 68%; 69%; 70%; 71%; 72%; 73%; 74%; 75%; 76%; 77%; 78%; 79%; 80%; 81%; 82%; 83%; 84%; 85%; 86%; 87%; 88%; 89%; 90%; 91%; 92%; 93%; 94%; 95%; 96%; 97%; 98%; 99%; 100%; 
Accumulating ...
1%; 2%; 3%; 4%; 5%; 6%; 7%; 8%; 9%; 10%; 11%; 12%; 13%; 14%; 15%; 16%; 17%; 18%; 19%; 20%; 21%; 22%; 23%; 24%; 25%; 26%; 27%; 28%; 29%; 30%; 31%; 32%; 33%; 34%; 35%; 36%; 37%; 38%; 39%; 40%; 41%; 42%; 43%; 44%; 45%; 46%; 47%; 48%; 49%; 50%; 51%; 52%; 53%; 54%; 55%; 56%; 57%; 58%; 59%; 60%; 61%; 62%; 63%; 64%; 65%; 66%; 67%; 68%; 69%; 70%; 71%; 72%; 73%; 74%; 75%; 76%; 77%; 78%; 79%; 80%; 81%; 82%; 83%; 84%; 85%; 86%; 87%; 88%; 89%; 90%; 91%; 92%; 93%; 94%; 95%; 96%; 97%; 98%; 99%; 100%; 

[Node 0] Acceptance rate for all moves:
Move set Insert two operators: 0.0320638
  Move  Insert Delta_down_0: 0.0320624
  Move  Insert Delta_down_1: 0.0320746
  Move  Insert Delta_down_2: 0.0320647
  Move  Insert Delta_up_0: 0.0320562
  Move  Insert Delta_up_1: 0.0320699
  Move  Insert Delta_up_2: 0.032055
Move set Remove two operators: 0.0320614
  Move  Remove Delta_down_0: 0.0320594
  Move  Remove Delta_down_1: 0.032071
  Move  Remove Delta_down_2: 0.0320633
  Move  Remove Delta_up_0: 0.0320541
  Move  Remove Delta_up_1: 0.0320694
  Move  Remove Delta_up_2: 0.0320513
Move set Insert four operators: 0.00191469
  Move  Insert Delta_down_0_down_0: 0.00235677
  Move  Insert Delta_down_0_down_1: 0.00184956
  Move  Insert Delta_down_0_down_2: 0.00182576
  Move  Insert Delta_down_0_up_0: 0.00181801
  Move  Insert Delta_down_0_up_1: 0.001815
  Move  Insert Delta_down_0_up_2: 0.00182089
  Move  Insert Delta_down_1_down_0: 0.00184061
  Move  Insert Delta_down_1_down_1: 0.0023578
  Move  Insert Delta_down_1_down_2: 0.00183555
  Move  Insert Delta_down_1_up_0: 0.00181263
  Move  Insert Delta_down_1_up_1: 0.00182573
  Move  Insert Delta_down_1_up_2: 0.00181355
  Move  Insert Delta_down_2_down_0: 0.00184425
  Move  Insert Delta_down_2_down_1: 0.00184448
  Move  Insert Delta_down_2_down_2: 0.00235813
  Move  Insert Delta_down_2_up_0: 0.00181445
  Move  Insert Delta_down_2_up_1: 0.00181358
  Move  Insert Delta_down_2_up_2: 0.00182566
  Move  Insert Delta_up_0_down_0: 0.00182394
  Move  Insert Delta_up_0_down_1: 0.0018115
  Move  Insert Delta_up_0_down_2: 0.00181667
  Move  Insert Delta_up_0_up_0: 0.00235757
  Move  Insert Delta_up_0_up_1: 0.00184764
  Move  Insert Delta_up_0_up_2: 0.0018386
  Move  Insert Delta_up_1_down_0: 0.00181872
  Move  Insert Delta_up_1_down_1: 0.00182082
  Move  Insert Delta_up_1_down_2: 0.00182057
  Move  Insert Delta_up_1_up_0: 0.00183822
  Move  Insert Delta_up_1_up_1: 0.00235908
  Move  Insert Delta_up_1_up_2: 0.0018314
  Move  Insert Delta_up_2_down_0: 0.00181506
  Move  Insert Delta_up_2_down_1: 0.00181131
  Move  Insert Delta_up_2_down_2: 0.00182008
  Move  Insert Delta_up_2_up_0: 0.00183924
  Move  Insert Delta_up_2_up_1: 0.00182895
  Move  Insert Delta_up_2_up_2: 0.00235698
Move set Remove four operators: 0.00191451
  Move  Remove Delta_down_0_down_0: 0.00236015
  Move  Remove Delta_down_0_down_1: 0.00184322
  Move  Remove Delta_down_0_down_2: 0.0018384
  Move  Remove Delta_down_0_up_0: 0.00182778
  Move  Remove Delta_down_0_up_1: 0.00181661
  Move  Remove Delta_down_0_up_2: 0.00181054
  Move  Remove Delta_down_1_down_0: 0.00184047
  Move  Remove Delta_down_1_down_1: 0.00235387
  Move  Remove Delta_down_1_down_2: 0.00183966
  Move  Remove Delta_down_1_up_0: 0.00181297
  Move  Remove Delta_down_1_up_1: 0.00182482
  Move  Remove Delta_down_1_up_2: 0.00180548
  Move  Remove Delta_down_2_down_0: 0.00183194
  Move  Remove Delta_down_2_down_1: 0.00183825
  Move  Remove Delta_down_2_down_2: 0.00235886
  Move  Remove Delta_down_2_up_0: 0.00181396
  Move  Remove Delta_down_2_up_1: 0.00181201
  Move  Remove Delta_down_2_up_2: 0.00183046
  Move  Remove Delta_up_0_down_0: 0.00182382
  Move  Remove Delta_up_0_down_1: 0.00181717
  Move  Remove Delta_up_0_down_2: 0.00181212
  Move  Remove Delta_up_0_up_0: 0.00235761
  Move  Remove Delta_up_0_up_1: 0.00184214
  Move  Remove Delta_up_0_up_2: 0.00184318
  Move  Remove Delta_up_1_down_0: 0.00181227
  Move  Remove Delta_up_1_down_1: 0.00182431
  Move  Remove Delta_up_1_down_2: 0.00181522
  Move  Remove Delta_up_1_up_0: 0.00183788
  Move  Remove Delta_up_1_up_1: 0.00235613
  Move  Remove Delta_up_1_up_2: 0.00183626
  Move  Remove Delta_up_2_down_0: 0.00181641
  Move  Remove Delta_up_2_down_1: 0.00182025
  Move  Remove Delta_up_2_down_2: 0.0018227
  Move  Remove Delta_up_2_up_0: 0.00183644
  Move  Remove Delta_up_2_up_1: 0.00183634
  Move  Remove Delta_up_2_up_2: 0.00235273
Move  Shift one operator: 0.18689
[Node 0] Simulation lasted: 373 seconds
[Node 0] Number of measures: 166666
Total number of measures: 59999760
Average sign: 0.999985
solver took   403.4618 seconds
Total charge convergency of impurity problem : 0.009501
Density matrix:
up_2
[[ 0.16706469]]
up_0
[[ 0.16809815]]
up_1
[[ 0.16718564]]
down_2
[[ 0.16864193]]
down_1
[[ 0.16697501]]
down_0
[[ 0.16736961]]


*** Post-processing the solver output ***
Total charge of all correlated shells : 1.005335
DC for shell 0 and block up = 2.622802
DC for shell 0 and block down = 2.622802
DC energy for shell 0 = 0.0114509050066
Dichotomy adjustment of Chemical Potential to obtain Total Density = 0.995990 +/- 0.000100
    Chemical Potential = -0.413714  
    Total Density = 0.699275
    0.086286 < Chemical Potential < -0.413714
    1.012152 < Total Density < 0.699275
    0.086286 < Chemical Potential < 0.060458
    1.012152 < Total Density < 0.992590
    0.086286 < Chemical Potential < 0.064946
    1.012152 < Total Density < 0.995949
    Chemical Potential found in 3 iterations : 
    Total Density = 0.995949;Chemical Potential = 0.064946
Kinetic energy contribution dmft part: 0.230553729208
energy contribution of correlated shell 0 = 0.234226922905
Trace of Density Matrix: {'down': (-0.0020253825617992244+1.5688093472063996e-17j), 'up': (-0.0020253825617992244+1.5688093472063996e-17j)}
band energy correction: 0.628037887707
Writing direct observables to text file
################################################################################
Doing ITERATION: 2 / 4

*** Correlated Shell type #  0 : Total charge of impurity problem = 0.995888
Density matrix:
up_2
[[ 0.16598139]]
up_0
[[ 0.16598142]]
up_1
[[ 0.16598139]]
down_2
[[ 0.16598139]]
down_1
[[ 0.16598139]]
down_0
[[ 0.16598142]]


Solving the impurity problem for shell 0 ...
The local Hamiltonian of the problem:
-2.11123*C^+(down_0,0)C(down_0,0) + -2.11123*C^+(down_1,0)C(down_1,0) + -2.11123*C^+(down_2,0)C(down_2,0) + -2.11123*C^+(up_0,0)C(up_0,0) + -2.11123*C^+(up_1,0)C(up_1,0) + -2.11123*C^+(up_2,0)C(up_2,0) + 4.55*C^+(down_0,0)C^+(down_1,0)C(down_1,0)C(down_0,0) + 4.55*C^+(down_0,0)C^+(down_2,0)C(down_2,0)C(down_0,0) + 0.65*C^+(down_0,0)C^+(up_0,0)C(up_2,0)C(down_2,0) + 0.65*C^+(down_0,0)C^+(up_0,0)C(up_1,0)C(down_1,0) + 6.5*C^+(down_0,0)C^+(up_0,0)C(up_0,0)C(down_0,0) + 5.2*C^+(down_0,0)C^+(up_1,0)C(up_1,0)C(down_0,0) + 0.65*C^+(down_0,0)C^+(up_1,0)C(up_0,0)C(down_1,0) + 5.2*C^+(down_0,0)C^+(up_2,0)C(up_2,0)C(down_0,0) + 0.65*C^+(down_0,0)C^+(up_2,0)C(up_0,0)C(down_2,0) + 4.55*C^+(down_1,0)C^+(down_2,0)C(down_2,0)C(down_1,0) + 0.65*C^+(down_1,0)C^+(up_0,0)C(up_1,0)C(down_0,0) + 5.2*C^+(down_1,0)C^+(up_0,0)C(up_0,0)C(down_1,0) + 0.65*C^+(down_1,0)C^+(up_1,0)C(up_2,0)C(down_2,0) + 6.5*C^+(down_1,0)C^+(up_1,0)C(up_1,0)C(down_1,0) + 0.65*C^+(down_1,0)C^+(up_1,0)C(up_0,0)C(down_0,0) + 5.2*C^+(down_1,0)C^+(up_2,0)C(up_2,0)C(down_1,0) + 0.65*C^+(down_1,0)C^+(up_2,0)C(up_1,0)C(down_2,0) + 0.65*C^+(down_2,0)C^+(up_0,0)C(up_2,0)C(down_0,0) + 5.2*C^+(down_2,0)C^+(up_0,0)C(up_0,0)C(down_2,0) + 0.65*C^+(down_2,0)C^+(up_1,0)C(up_2,0)C(down_1,0) + 5.2*C^+(down_2,0)C^+(up_1,0)C(up_1,0)C(down_2,0) + 6.5*C^+(down_2,0)C^+(up_2,0)C(up_2,0)C(down_2,0) + 0.65*C^+(down_2,0)C^+(up_2,0)C(up_1,0)C(down_1,0) + 0.65*C^+(down_2,0)C^+(up_2,0)C(up_0,0)C(down_0,0) + 4.55*C^+(up_0,0)C^+(up_1,0)C(up_1,0)C(up_0,0) + 4.55*C^+(up_0,0)C^+(up_2,0)C(up_2,0)C(up_0,0) + 4.55*C^+(up_1,0)C^+(up_2,0)C(up_2,0)C(up_1,0)
Using autopartition algorithm to partition the local Hilbert space
Found 44 subspaces.

Warming up ...
1%; 2%; 3%; 4%; 5%; 6%; 7%; 8%; 9%; 10%; 11%; 12%; 13%; 14%; 15%; 16%; 17%; 18%; 19%; 20%; 21%; 22%; 23%; 24%; 25%; 26%; 27%; 28%; 29%; 30%; 31%; 32%; 33%; 34%; 35%; 36%; 37%; 38%; 39%; 40%; 41%; 42%; 43%; 44%; 45%; 46%; 47%; 48%; 49%; 50%; 51%; 52%; 53%; 54%; 55%; 56%; 57%; 58%; 59%; 60%; 61%; 62%; 63%; 64%; 65%; 66%; 67%; 68%; 69%; 70%; 71%; 72%; 73%; 74%; 75%; 76%; 77%; 78%; 79%; 80%; 81%; 82%; 83%; 84%; 85%; 86%; 87%; 88%; 89%; 90%; 91%; 92%; 93%; 94%; 95%; 96%; 97%; 98%; 99%; 100%; 
Accumulating ...
1%; 2%; 3%; 4%; 5%; 6%; 7%; 8%; 9%; 10%; 11%; 12%; 13%; 14%; 15%; 16%; 17%; 18%; 19%; 20%; 21%; 22%; 23%; 24%; 25%; 26%; 27%; 28%; 29%; 30%; 31%; 32%; 33%; 34%; 35%; 36%; 37%; 38%; 39%; 40%; 41%; 42%; 43%; 44%; 45%; 46%; 47%; 48%; 49%; 50%; 51%; 52%; 53%; 54%; 55%; 56%; 57%; 58%; 59%; 60%; 61%; 62%; 63%; 64%; 65%; 66%; 67%; 68%; 69%; 70%; 71%; 72%; 73%; 74%; 75%; 76%; 77%; 78%; 79%; 80%; 81%; 82%; 83%; 84%; 85%; 86%; 87%; 88%; 89%; 90%; 91%; 92%; 93%; 94%; 95%; 96%; 97%; 98%; 99%; 100%; 

[Node 0] Acceptance rate for all moves:
Move set Insert two operators: 0.0325437
  Move  Insert Delta_down_0: 0.0325323
  Move  Insert Delta_down_1: 0.0325586
  Move  Insert Delta_down_2: 0.0325463
  Move  Insert Delta_up_0: 0.0325332
  Move  Insert Delta_up_1: 0.0325525
  Move  Insert Delta_up_2: 0.0325391
Move set Remove two operators: 0.0325414
  Move  Remove Delta_down_0: 0.0325284
  Move  Remove Delta_down_1: 0.0325559
  Move  Remove Delta_down_2: 0.0325459
  Move  Remove Delta_up_0: 0.0325317
  Move  Remove Delta_up_1: 0.0325515
  Move  Remove Delta_up_2: 0.0325352
Move set Insert four operators: 0.00205401
  Move  Insert Delta_down_0_down_0: 0.00234495
  Move  Insert Delta_down_0_down_1: 0.00202449
  Move  Insert Delta_down_0_down_2: 0.00202456
  Move  Insert Delta_down_0_up_0: 0.001983
  Move  Insert Delta_down_0_up_1: 0.00197897
  Move  Insert Delta_down_0_up_2: 0.00197862
  Move  Insert Delta_down_1_down_0: 0.00202312
  Move  Insert Delta_down_1_down_1: 0.00234559
  Move  Insert Delta_down_1_down_2: 0.00201081
  Move  Insert Delta_down_1_up_0: 0.00197735
  Move  Insert Delta_down_1_up_1: 0.00198655
  Move  Insert Delta_down_1_up_2: 0.00197011
  Move  Insert Delta_down_2_down_0: 0.00203198
  Move  Insert Delta_down_2_down_1: 0.00202556
  Move  Insert Delta_down_2_down_2: 0.002357
  Move  Insert Delta_down_2_up_0: 0.00197762
  Move  Insert Delta_down_2_up_1: 0.00196981
  Move  Insert Delta_down_2_up_2: 0.00198017
  Move  Insert Delta_up_0_down_0: 0.00197486
  Move  Insert Delta_up_0_down_1: 0.00197755
  Move  Insert Delta_up_0_down_2: 0.00197615
  Move  Insert Delta_up_0_up_0: 0.00234045
  Move  Insert Delta_up_0_up_1: 0.0020152
  Move  Insert Delta_up_0_up_2: 0.00202121
  Move  Insert Delta_up_1_down_0: 0.00198019
  Move  Insert Delta_up_1_down_1: 0.00198766
  Move  Insert Delta_up_1_down_2: 0.00197854
  Move  Insert Delta_up_1_up_0: 0.00202336
  Move  Insert Delta_up_1_up_1: 0.00233895
  Move  Insert Delta_up_1_up_2: 0.00201899
  Move  Insert Delta_up_2_down_0: 0.00197844
  Move  Insert Delta_up_2_down_1: 0.00197478
  Move  Insert Delta_up_2_down_2: 0.00197936
  Move  Insert Delta_up_2_up_0: 0.0020188
  Move  Insert Delta_up_2_up_1: 0.00202075
  Move  Insert Delta_up_2_up_2: 0.00234896
Move set Remove four operators: 0.00205415
  Move  Remove Delta_down_0_down_0: 0.00234399
  Move  Remove Delta_down_0_down_1: 0.00202431
  Move  Remove Delta_down_0_down_2: 0.00202165
  Move  Remove Delta_down_0_up_0: 0.00197787
  Move  Remove Delta_down_0_up_1: 0.00198075
  Move  Remove Delta_down_0_up_2: 0.00198286
  Move  Remove Delta_down_1_down_0: 0.00203018
  Move  Remove Delta_down_1_down_1: 0.0023448
  Move  Remove Delta_down_1_down_2: 0.00201928
  Move  Remove Delta_down_1_up_0: 0.00196687
  Move  Remove Delta_down_1_up_1: 0.00198054
  Move  Remove Delta_down_1_up_2: 0.00197492
  Move  Remove Delta_down_2_down_0: 0.00202709
  Move  Remove Delta_down_2_down_1: 0.00202514
  Move  Remove Delta_down_2_down_2: 0.00234779
  Move  Remove Delta_down_2_up_0: 0.00198001
  Move  Remove Delta_down_2_up_1: 0.00196817
  Move  Remove Delta_down_2_up_2: 0.00198364
  Move  Remove Delta_up_0_down_0: 0.0019842
  Move  Remove Delta_up_0_down_1: 0.00198076
  Move  Remove Delta_up_0_down_2: 0.00198034
  Move  Remove Delta_up_0_up_0: 0.00233461
  Move  Remove Delta_up_0_up_1: 0.0020188
  Move  Remove Delta_up_0_up_2: 0.0020217
  Move  Remove Delta_up_1_down_0: 0.00198211
  Move  Remove Delta_up_1_down_1: 0.00198656
  Move  Remove Delta_up_1_down_2: 0.0019713
  Move  Remove Delta_up_1_up_0: 0.0020171
  Move  Remove Delta_up_1_up_1: 0.00234497
  Move  Remove Delta_up_1_up_2: 0.00202338
  Move  Remove Delta_up_2_down_0: 0.00197714
  Move  Remove Delta_up_2_down_1: 0.00198133
  Move  Remove Delta_up_2_down_2: 0.00198314
  Move  Remove Delta_up_2_up_0: 0.00202053
  Move  Remove Delta_up_2_up_1: 0.00201732
  Move  Remove Delta_up_2_up_2: 0.00234438
Move  Shift one operator: 0.157375
[Node 0] Simulation lasted: 343 seconds
[Node 0] Number of measures: 166666
Total number of measures: 59999760
Average sign: 0.999976
solver took   369.6043 seconds
Total charge convergency of impurity problem : 0.011902
Density matrix:
up_2
[[ 0.16806107]]
up_0
[[ 0.16880031]]
up_1
[[ 0.16670351]]
down_2
[[ 0.16848093]]
down_1
[[ 0.16737321]]
down_0
[[ 0.16837126]]


*** Post-processing the solver output ***
Total charge of all correlated shells : 1.007790
DC for shell 0 and block up = 2.634321
DC for shell 0 and block down = 2.634321
DC energy for shell 0 = 0.0172735331128
Dichotomy adjustment of Chemical Potential to obtain Total Density = 0.995990 +/- 0.000100
    Chemical Potential = -0.435054  
    Total Density = 0.725729
    0.064946 < Chemical Potential < -0.435054
    0.998866 < Total Density < 0.725729
    0.064946 < Chemical Potential < 0.059682
    0.998866 < Total Density < 0.995361
    0.064946 < Chemical Potential < 0.060627
    0.998866 < Total Density < 0.995989
    Chemical Potential found in 3 iterations : 
    Total Density = 0.995989;Chemical Potential = 0.060627
Kinetic energy contribution dmft part: 0.290868887202
energy contribution of correlated shell 0 = 0.178699565644
Trace of Density Matrix: {'down': (-0.0020055553381892743+2.8399326680036362e-17j), 'up': (-0.0020055553381892743+2.8399326680036362e-17j)}
band energy correction: 0.688353040978
Writing direct observables to text file
################################################################################
Doing ITERATION: 3 / 4

*** Correlated Shell type #  0 : Total charge of impurity problem = 0.995937
Density matrix:
up_2
[[ 0.16598949]]
up_0
[[ 0.16598951]]
up_1
[[ 0.16598949]]
down_2
[[ 0.16598949]]
down_1
[[ 0.16598949]]
down_0
[[ 0.16598951]]


Solving the impurity problem for shell 0 ...
The local Hamiltonian of the problem:
-2.11842*C^+(down_0,0)C(down_0,0) + -2.11842*C^+(down_1,0)C(down_1,0) + -2.11842*C^+(down_2,0)C(down_2,0) + -2.11842*C^+(up_0,0)C(up_0,0) + -2.11842*C^+(up_1,0)C(up_1,0) + -2.11842*C^+(up_2,0)C(up_2,0) + 4.55*C^+(down_0,0)C^+(down_1,0)C(down_1,0)C(down_0,0) + 4.55*C^+(down_0,0)C^+(down_2,0)C(down_2,0)C(down_0,0) + 0.65*C^+(down_0,0)C^+(up_0,0)C(up_2,0)C(down_2,0) + 0.65*C^+(down_0,0)C^+(up_0,0)C(up_1,0)C(down_1,0) + 6.5*C^+(down_0,0)C^+(up_0,0)C(up_0,0)C(down_0,0) + 5.2*C^+(down_0,0)C^+(up_1,0)C(up_1,0)C(down_0,0) + 0.65*C^+(down_0,0)C^+(up_1,0)C(up_0,0)C(down_1,0) + 5.2*C^+(down_0,0)C^+(up_2,0)C(up_2,0)C(down_0,0) + 0.65*C^+(down_0,0)C^+(up_2,0)C(up_0,0)C(down_2,0) + 4.55*C^+(down_1,0)C^+(down_2,0)C(down_2,0)C(down_1,0) + 0.65*C^+(down_1,0)C^+(up_0,0)C(up_1,0)C(down_0,0) + 5.2*C^+(down_1,0)C^+(up_0,0)C(up_0,0)C(down_1,0) + 0.65*C^+(down_1,0)C^+(up_1,0)C(up_2,0)C(down_2,0) + 6.5*C^+(down_1,0)C^+(up_1,0)C(up_1,0)C(down_1,0) + 0.65*C^+(down_1,0)C^+(up_1,0)C(up_0,0)C(down_0,0) + 5.2*C^+(down_1,0)C^+(up_2,0)C(up_2,0)C(down_1,0) + 0.65*C^+(down_1,0)C^+(up_2,0)C(up_1,0)C(down_2,0) + 0.65*C^+(down_2,0)C^+(up_0,0)C(up_2,0)C(down_0,0) + 5.2*C^+(down_2,0)C^+(up_0,0)C(up_0,0)C(down_2,0) + 0.65*C^+(down_2,0)C^+(up_1,0)C(up_2,0)C(down_1,0) + 5.2*C^+(down_2,0)C^+(up_1,0)C(up_1,0)C(down_2,0) + 6.5*C^+(down_2,0)C^+(up_2,0)C(up_2,0)C(down_2,0) + 0.65*C^+(down_2,0)C^+(up_2,0)C(up_1,0)C(down_1,0) + 0.65*C^+(down_2,0)C^+(up_2,0)C(up_0,0)C(down_0,0) + 4.55*C^+(up_0,0)C^+(up_1,0)C(up_1,0)C(up_0,0) + 4.55*C^+(up_0,0)C^+(up_2,0)C(up_2,0)C(up_0,0) + 4.55*C^+(up_1,0)C^+(up_2,0)C(up_2,0)C(up_1,0)
Using autopartition algorithm to partition the local Hilbert space
Found 44 subspaces.

Warming up ...
1%; 2%; 3%; 4%; 5%; 6%; 7%; 8%; 9%; 10%; 11%; 12%; 13%; 14%; 15%; 16%; 17%; 18%; 19%; 20%; 21%; 22%; 23%; 24%; 25%; 26%; 27%; 28%; 29%; 30%; 31%; 32%; 33%; 34%; 35%; 36%; 37%; 38%; 39%; 40%; 41%; 42%; 43%; 44%; 45%; 46%; 47%; 48%; 49%; 50%; 51%; 52%; 53%; 54%; 55%; 56%; 57%; 58%; 59%; 60%; 61%; 62%; 63%; 64%; 65%; 66%; 67%; 68%; 69%; 70%; 71%; 72%; 73%; 74%; 75%; 76%; 77%; 78%; 79%; 80%; 81%; 82%; 83%; 84%; 85%; 86%; 87%; 88%; 89%; 90%; 91%; 92%; 93%; 94%; 95%; 96%; 97%; 98%; 99%; 100%; 
Accumulating ...
1%; 2%; 3%; 4%; 5%; 6%; 7%; 8%; 9%; 10%; 11%; 12%; 13%; 14%; 15%; 16%; 17%; 18%; 19%; 20%; 21%; 22%; 23%; 24%; 25%; 26%; 27%; 28%; 29%; 30%; 31%; 32%; 33%; 34%; 35%; 36%; 37%; 38%; 39%; 40%; 41%; 42%; 43%; 44%; 45%; 46%; 47%; 48%; 49%; 50%; 51%; 52%; 53%; 54%; 55%; 56%; 57%; 58%; 59%; 60%; 61%; 62%; 63%; 64%; 65%; 66%; 67%; 68%; 69%; 70%; 71%; 72%; 73%; 74%; 75%; 76%; 77%; 78%; 79%; 80%; 81%; 82%; 83%; 84%; 85%; 86%; 87%; 88%; 89%; 90%; 91%; 92%; 93%; 94%; 95%; 96%; 97%; 98%; 99%; 100%; 

[Node 0] Acceptance rate for all moves:
Move set Insert two operators: 0.0327633
  Move  Insert Delta_down_0: 0.0327771
  Move  Insert Delta_down_1: 0.0327638
  Move  Insert Delta_down_2: 0.0327583
  Move  Insert Delta_up_0: 0.0327572
  Move  Insert Delta_up_1: 0.032769
  Move  Insert Delta_up_2: 0.0327542
Move set Remove two operators: 0.0327616
  Move  Remove Delta_down_0: 0.032783
  Move  Remove Delta_down_1: 0.0327602
  Move  Remove Delta_down_2: 0.0327513
  Move  Remove Delta_up_0: 0.0327568
  Move  Remove Delta_up_1: 0.0327677
  Move  Remove Delta_up_2: 0.0327505
Move set Insert four operators: 0.00216379
  Move  Insert Delta_down_0_down_0: 0.00232713
  Move  Insert Delta_down_0_down_1: 0.00216947
  Move  Insert Delta_down_0_down_2: 0.00217657
  Move  Insert Delta_down_0_up_0: 0.00210412
  Move  Insert Delta_down_0_up_1: 0.0021125
  Move  Insert Delta_down_0_up_2: 0.00210959
  Move  Insert Delta_down_1_down_0: 0.00217927
  Move  Insert Delta_down_1_down_1: 0.00231629
  Move  Insert Delta_down_1_down_2: 0.00216858
  Move  Insert Delta_down_1_up_0: 0.00210768
  Move  Insert Delta_down_1_up_1: 0.00210374
  Move  Insert Delta_down_1_up_2: 0.00209632
  Move  Insert Delta_down_2_down_0: 0.00217241
  Move  Insert Delta_down_2_down_1: 0.00217786
  Move  Insert Delta_down_2_down_2: 0.00230228
  Move  Insert Delta_down_2_up_0: 0.00210495
  Move  Insert Delta_down_2_up_1: 0.00210991
  Move  Insert Delta_down_2_up_2: 0.00210349
  Move  Insert Delta_up_0_down_0: 0.00209793
  Move  Insert Delta_up_0_down_1: 0.00211691
  Move  Insert Delta_up_0_down_2: 0.00211171
  Move  Insert Delta_up_0_up_0: 0.00231722
  Move  Insert Delta_up_0_up_1: 0.00216777
  Move  Insert Delta_up_0_up_2: 0.00217048
  Move  Insert Delta_up_1_down_0: 0.00210965
  Move  Insert Delta_up_1_down_1: 0.0021079
  Move  Insert Delta_up_1_down_2: 0.00210583
  Move  Insert Delta_up_1_up_0: 0.00216736
  Move  Insert Delta_up_1_up_1: 0.00231184
  Move  Insert Delta_up_1_up_2: 0.00218241
  Move  Insert Delta_up_2_down_0: 0.00211073
  Move  Insert Delta_up_2_down_1: 0.00210857
  Move  Insert Delta_up_2_down_2: 0.00209982
  Move  Insert Delta_up_2_up_0: 0.00217738
  Move  Insert Delta_up_2_up_1: 0.00217718
  Move  Insert Delta_up_2_up_2: 0.00231369
Move set Remove four operators: 0.00216338
  Move  Remove Delta_down_0_down_0: 0.00231393
  Move  Remove Delta_down_0_down_1: 0.00217127
  Move  Remove Delta_down_0_down_2: 0.00217325
  Move  Remove Delta_down_0_up_0: 0.00209954
  Move  Remove Delta_down_0_up_1: 0.00210422
  Move  Remove Delta_down_0_up_2: 0.00210625
  Move  Remove Delta_down_1_down_0: 0.00216905
  Move  Remove Delta_down_1_down_1: 0.00231571
  Move  Remove Delta_down_1_down_2: 0.00217321
  Move  Remove Delta_down_1_up_0: 0.00210019
  Move  Remove Delta_down_1_up_1: 0.00209982
  Move  Remove Delta_down_1_up_2: 0.0021103
  Move  Remove Delta_down_2_down_0: 0.00217184
  Move  Remove Delta_down_2_down_1: 0.00217729
  Move  Remove Delta_down_2_down_2: 0.00230699
  Move  Remove Delta_down_2_up_0: 0.00210276
  Move  Remove Delta_down_2_up_1: 0.00210998
  Move  Remove Delta_down_2_up_2: 0.00209714
  Move  Remove Delta_up_0_down_0: 0.00210107
  Move  Remove Delta_up_0_down_1: 0.00212056
  Move  Remove Delta_up_0_down_2: 0.00210699
  Move  Remove Delta_up_0_up_0: 0.00231562
  Move  Remove Delta_up_0_up_1: 0.00217287
  Move  Remove Delta_up_0_up_2: 0.00216515
  Move  Remove Delta_up_1_down_0: 0.00210543
  Move  Remove Delta_up_1_down_1: 0.00210908
  Move  Remove Delta_up_1_down_2: 0.00211237
  Move  Remove Delta_up_1_up_0: 0.00216891
  Move  Remove Delta_up_1_up_1: 0.00231969
  Move  Remove Delta_up_1_up_2: 0.00217759
  Move  Remove Delta_up_2_down_0: 0.00210751
  Move  Remove Delta_up_2_down_1: 0.00211596
  Move  Remove Delta_up_2_down_2: 0.00210685
  Move  Remove Delta_up_2_up_0: 0.00217724
  Move  Remove Delta_up_2_up_1: 0.00217514
  Move  Remove Delta_up_2_up_2: 0.00232112
Move  Shift one operator: 0.136345
[Node 0] Simulation lasted: 317 seconds
[Node 0] Number of measures: 166666
Total number of measures: 59999760
Average sign: 0.999983
solver took   343.2135 seconds
Total charge convergency of impurity problem : 0.012195
Density matrix:
up_2
[[ 0.16803325]]
up_0
[[ 0.16794543]]
up_1
[[ 0.16745396]]
down_2
[[ 0.16893761]]
down_1
[[ 0.16746189]]
down_0
[[ 0.1683001]]


*** Post-processing the solver output ***
Total charge of all correlated shells : 1.008132
DC for shell 0 and block up = 2.635946
DC for shell 0 and block down = 2.635946
DC energy for shell 0 = 0.0180972664049
Dichotomy adjustment of Chemical Potential to obtain Total Density = 0.995990 +/- 0.000100
    Chemical Potential = 0.560627  
    Total Density = 1.366052
    0.060627 < Chemical Potential < 0.560627
    0.995787 < Total Density < 1.366052
    0.060901 < Chemical Potential < 0.560627
    0.995952 < Total Density < 1.366052
    Chemical Potential found in 2 iterations : 
    Total Density = 0.995952;Chemical Potential = 0.060901
Kinetic energy contribution dmft part: 0.334525994294
energy contribution of correlated shell 0 = 0.141426147055
Trace of Density Matrix: {'down': (-0.0020241797398093571+7.4866322487797199e-18j), 'up': (-0.0020241797398093571+7.4866322487797199e-18j)}
band energy correction: 0.732010144652
Writing direct observables to text file
################################################################################
Doing ITERATION: 4 / 4

*** Correlated Shell type #  0 : Total charge of impurity problem = 0.995905
Density matrix:
up_2
[[ 0.16598424]]
up_0
[[ 0.16598426]]
up_1
[[ 0.16598424]]
down_2
[[ 0.16598424]]
down_1
[[ 0.16598424]]
down_0
[[ 0.16598426]]


Solving the impurity problem for shell 0 ...
The local Hamiltonian of the problem:
-2.12032*C^+(down_0,0)C(down_0,0) + -2.12032*C^+(down_1,0)C(down_1,0) + -2.12032*C^+(down_2,0)C(down_2,0) + -2.12032*C^+(up_0,0)C(up_0,0) + -2.12032*C^+(up_1,0)C(up_1,0) + -2.12032*C^+(up_2,0)C(up_2,0) + 4.55*C^+(down_0,0)C^+(down_1,0)C(down_1,0)C(down_0,0) + 4.55*C^+(down_0,0)C^+(down_2,0)C(down_2,0)C(down_0,0) + 0.65*C^+(down_0,0)C^+(up_0,0)C(up_2,0)C(down_2,0) + 0.65*C^+(down_0,0)C^+(up_0,0)C(up_1,0)C(down_1,0) + 6.5*C^+(down_0,0)C^+(up_0,0)C(up_0,0)C(down_0,0) + 5.2*C^+(down_0,0)C^+(up_1,0)C(up_1,0)C(down_0,0) + 0.65*C^+(down_0,0)C^+(up_1,0)C(up_0,0)C(down_1,0) + 5.2*C^+(down_0,0)C^+(up_2,0)C(up_2,0)C(down_0,0) + 0.65*C^+(down_0,0)C^+(up_2,0)C(up_0,0)C(down_2,0) + 4.55*C^+(down_1,0)C^+(down_2,0)C(down_2,0)C(down_1,0) + 0.65*C^+(down_1,0)C^+(up_0,0)C(up_1,0)C(down_0,0) + 5.2*C^+(down_1,0)C^+(up_0,0)C(up_0,0)C(down_1,0) + 0.65*C^+(down_1,0)C^+(up_1,0)C(up_2,0)C(down_2,0) + 6.5*C^+(down_1,0)C^+(up_1,0)C(up_1,0)C(down_1,0) + 0.65*C^+(down_1,0)C^+(up_1,0)C(up_0,0)C(down_0,0) + 5.2*C^+(down_1,0)C^+(up_2,0)C(up_2,0)C(down_1,0) + 0.65*C^+(down_1,0)C^+(up_2,0)C(up_1,0)C(down_2,0) + 0.65*C^+(down_2,0)C^+(up_0,0)C(up_2,0)C(down_0,0) + 5.2*C^+(down_2,0)C^+(up_0,0)C(up_0,0)C(down_2,0) + 0.65*C^+(down_2,0)C^+(up_1,0)C(up_2,0)C(down_1,0) + 5.2*C^+(down_2,0)C^+(up_1,0)C(up_1,0)C(down_2,0) + 6.5*C^+(down_2,0)C^+(up_2,0)C(up_2,0)C(down_2,0) + 0.65*C^+(down_2,0)C^+(up_2,0)C(up_1,0)C(down_1,0) + 0.65*C^+(down_2,0)C^+(up_2,0)C(up_0,0)C(down_0,0) + 4.55*C^+(up_0,0)C^+(up_1,0)C(up_1,0)C(up_0,0) + 4.55*C^+(up_0,0)C^+(up_2,0)C(up_2,0)C(up_0,0) + 4.55*C^+(up_1,0)C^+(up_2,0)C(up_2,0)C(up_1,0)
Using autopartition algorithm to partition the local Hilbert space
Found 44 subspaces.

Warming up ...
1%; 2%; 3%; 4%; 5%; 6%; 7%; 8%; 9%; 10%; 11%; 12%; 13%; 14%; 15%; 16%; 17%; 18%; 19%; 20%; 21%; 22%; 23%; 24%; 25%; 26%; 27%; 28%; 29%; 30%; 31%; 32%; 33%; 34%; 35%; 36%; 37%; 38%; 39%; 40%; 41%; 42%; 43%; 44%; 45%; 46%; 47%; 48%; 49%; 50%; 51%; 52%; 53%; 54%; 55%; 56%; 57%; 58%; 59%; 60%; 61%; 62%; 63%; 64%; 65%; 66%; 67%; 68%; 69%; 70%; 71%; 72%; 73%; 74%; 75%; 76%; 77%; 78%; 79%; 80%; 81%; 82%; 83%; 84%; 85%; 86%; 87%; 88%; 89%; 90%; 91%; 92%; 93%; 94%; 95%; 96%; 97%; 98%; 99%; 100%; 
Accumulating ...
1%; 2%; 3%; 4%; 5%; 6%; 7%; 8%; 9%; 10%; 11%; 12%; 13%; 14%; 15%; 16%; 17%; 18%; 19%; 20%; 21%; 22%; 23%; 24%; 25%; 26%; 27%; 28%; 29%; 30%; 31%; 32%; 33%; 34%; 35%; 36%; 37%; 38%; 39%; 40%; 41%; 42%; 43%; 44%; 45%; 46%; 47%; 48%; 49%; 50%; 51%; 52%; 53%; 54%; 55%; 56%; 57%; 58%; 59%; 60%; 61%; 62%; 63%; 64%; 65%; 66%; 67%; 68%; 69%; 70%; 71%; 72%; 73%; 74%; 75%; 76%; 77%; 78%; 79%; 80%; 81%; 82%; 83%; 84%; 85%; 86%; 87%; 88%; 89%; 90%; 91%; 92%; 93%; 94%; 95%; 96%; 97%; 98%; 99%; 100%; 

[Node 0] Acceptance rate for all moves:
Move set Insert two operators: 0.0328419
  Move  Insert Delta_down_0: 0.0328538
  Move  Insert Delta_down_1: 0.032846
  Move  Insert Delta_down_2: 0.0328347
  Move  Insert Delta_up_0: 0.0328355
  Move  Insert Delta_up_1: 0.0328525
  Move  Insert Delta_up_2: 0.0328289
Move set Remove two operators: 0.0328427
  Move  Remove Delta_down_0: 0.0328499
  Move  Remove Delta_down_1: 0.0328446
  Move  Remove Delta_down_2: 0.0328401
  Move  Remove Delta_up_0: 0.0328359
  Move  Remove Delta_up_1: 0.0328564
  Move  Remove Delta_up_2: 0.0328291
Move set Insert four operators: 0.00225511
  Move  Insert Delta_down_0_down_0: 0.00227017
  Move  Insert Delta_down_0_down_1: 0.00231165
  Move  Insert Delta_down_0_down_2: 0.00230759
  Move  Insert Delta_down_0_up_0: 0.00219822
  Move  Insert Delta_down_0_up_1: 0.00222218
  Move  Insert Delta_down_0_up_2: 0.00222916
  Move  Insert Delta_down_1_down_0: 0.00230627
  Move  Insert Delta_down_1_down_1: 0.00227324
  Move  Insert Delta_down_1_down_2: 0.00230149
  Move  Insert Delta_down_1_up_0: 0.00222367
  Move  Insert Delta_down_1_up_1: 0.00220265
  Move  Insert Delta_down_1_up_2: 0.0022183
  Move  Insert Delta_down_2_down_0: 0.00231293
  Move  Insert Delta_down_2_down_1: 0.00231219
  Move  Insert Delta_down_2_down_2: 0.00226615
  Move  Insert Delta_down_2_up_0: 0.00222108
  Move  Insert Delta_down_2_up_1: 0.00221762
  Move  Insert Delta_down_2_up_2: 0.00219203
  Move  Insert Delta_up_0_down_0: 0.00219924
  Move  Insert Delta_up_0_down_1: 0.00221754
  Move  Insert Delta_up_0_down_2: 0.00222196
  Move  Insert Delta_up_0_up_0: 0.00228338
  Move  Insert Delta_up_0_up_1: 0.00230577
  Move  Insert Delta_up_0_up_2: 0.00230475
  Move  Insert Delta_up_1_down_0: 0.00222621
  Move  Insert Delta_up_1_down_1: 0.00219463
  Move  Insert Delta_up_1_down_2: 0.00221565
  Move  Insert Delta_up_1_up_0: 0.00231117
  Move  Insert Delta_up_1_up_1: 0.00227232
  Move  Insert Delta_up_1_up_2: 0.0023091
  Move  Insert Delta_up_2_down_0: 0.00222954
  Move  Insert Delta_up_2_down_1: 0.00221558
  Move  Insert Delta_up_2_down_2: 0.00220913
  Move  Insert Delta_up_2_up_0: 0.00230651
  Move  Insert Delta_up_2_up_1: 0.0023005
  Move  Insert Delta_up_2_up_2: 0.0022743
Move set Remove four operators: 0.00225418
  Move  Remove Delta_down_0_down_0: 0.00227008
  Move  Remove Delta_down_0_down_1: 0.00231722
  Move  Remove Delta_down_0_down_2: 0.0023159
  Move  Remove Delta_down_0_up_0: 0.00219777
  Move  Remove Delta_down_0_up_1: 0.00222231
  Move  Remove Delta_down_0_up_2: 0.00221845
  Move  Remove Delta_down_1_down_0: 0.00231059
  Move  Remove Delta_down_1_down_1: 0.00226667
  Move  Remove Delta_down_1_down_2: 0.00230236
  Move  Remove Delta_down_1_up_0: 0.00221471
  Move  Remove Delta_down_1_up_1: 0.00219942
  Move  Remove Delta_down_1_up_2: 0.0022178
  Move  Remove Delta_down_2_down_0: 0.00229324
  Move  Remove Delta_down_2_down_1: 0.00230857
  Move  Remove Delta_down_2_down_2: 0.00226052
  Move  Remove Delta_down_2_up_0: 0.00222262
  Move  Remove Delta_down_2_up_1: 0.00221828
  Move  Remove Delta_down_2_up_2: 0.00219793
  Move  Remove Delta_up_0_down_0: 0.00220899
  Move  Remove Delta_up_0_down_1: 0.00222103
  Move  Remove Delta_up_0_down_2: 0.00222326
  Move  Remove Delta_up_0_up_0: 0.00226605
  Move  Remove Delta_up_0_up_1: 0.00230463
  Move  Remove Delta_up_0_up_2: 0.00230876
  Move  Remove Delta_up_1_down_0: 0.00222949
  Move  Remove Delta_up_1_down_1: 0.00219481
  Move  Remove Delta_up_1_down_2: 0.00221954
  Move  Remove Delta_up_1_up_0: 0.00230565
  Move  Remove Delta_up_1_up_1: 0.00227145
  Move  Remove Delta_up_1_up_2: 0.00229837
  Move  Remove Delta_up_2_down_0: 0.00223083
  Move  Remove Delta_up_2_down_1: 0.00222124
  Move  Remove Delta_up_2_down_2: 0.0021973
  Move  Remove Delta_up_2_up_0: 0.00231349
  Move  Remove Delta_up_2_up_1: 0.00231113
  Move  Remove Delta_up_2_up_2: 0.00226987
Move  Shift one operator: 0.117799
[Node 0] Simulation lasted: 291 seconds
[Node 0] Number of measures: 166666
Total number of measures: 59999760
Average sign: 0.999985
solver took   319.2875 seconds
Total charge convergency of impurity problem : 0.013388
Density matrix:
up_2
[[ 0.16853777]]
up_0
[[ 0.16746247]]
up_1
[[ 0.16871386]]
down_2
[[ 0.16919799]]
down_1
[[ 0.16674606]]
down_0
[[ 0.16863504]]


*** Post-processing the solver output ***
Total charge of all correlated shells : 1.009293
DC for shell 0 and block up = 2.641363
DC for shell 0 and block down = 2.641363
DC energy for shell 0 = 0.0208460169468
Dichotomy adjustment of Chemical Potential to obtain Total Density = 0.995990 +/- 0.000100
    Chemical Potential = -0.439099  
    Total Density = 0.776759
    0.060901 < Chemical Potential < -0.439099
    1.000425 < Total Density < 0.776759
    0.060901 < Chemical Potential < 0.050986
    1.000425 < Total Density < 0.995076
    0.060901 < Chemical Potential < 0.052680
    1.000425 < Total Density < 0.995987
    Chemical Potential found in 3 iterations : 
    Total Density = 0.995987;Chemical Potential = 0.052680
Kinetic energy contribution dmft part: 0.372760565203
energy contribution of correlated shell 0 = 0.101450744562
Trace of Density Matrix: {'down': (-0.0020064098951953005-1.4482802848017745e-17j), 'up': (-0.0020064098951953005-1.4482802848017745e-17j)}
band energy correction: 0.770244712567
Writing direct observables to text file
all requested iterations finished
######################################################### 


================================================================================
  Total energy:  -39.7746179084
  DFT energy:  -39.0849779234
  Corr. energy:  0.0806047276156
  DFT DC:  0.770244712567
================================================================================

  Waiting for VASP lock to disappear...
 reading the density matrix from GAMMA
BRMIX: very serious problems
 the old and the new charge density differ
 old charge density:    32.99999 new   32.99598
    0.191E+00
DAV:  13    -0.390862625696E+02   -0.12846E-02   -0.40891E-03121584   0.389E-01  
 writing the density matrix to GAMMA
   Lock file will be deleted
  Waiting for VASP lock to disappear...
 reading the density matrix from GAMMA
    0.113E+00
DAV:  14    -0.390872150408E+02   -0.95247E-03   -0.30670E-03113652   0.368E-01  
 writing the density matrix to GAMMA
   Lock file will be deleted
  Waiting for VASP lock to disappear...
 reading the density matrix from GAMMA
    0.585E-01
DAV:  15    -0.390872831792E+02   -0.68138E-04   -0.17565E-03106860   0.222E-01  
 writing the density matrix to GAMMA
   Lock file will be deleted
  Waiting for VASP lock to disappear...
 reading the density matrix from GAMMA
    0.588E-02
DAV:  16    -0.390870044734E+02    0.27871E-03   -0.71399E-05175596   0.524E-02  
 writing the density matrix to GAMMA
   Lock file will be deleted
  Waiting for VASP lock to disappear...
 reading the density matrix from GAMMA
    0.253E-02
DAV:  17    -0.390869566264E+02    0.47847E-04   -0.12124E-06 91320   0.781E-03  
 writing the density matrix to GAMMA
   Lock file will be deleted
  Waiting for VASP lock to disappear...
 reading the density matrix from GAMMA
    0.254E-03
DAV:  18    -0.390869695821E+02   -0.12956E-04   -0.20765E-07 87492   0.378E-03  
 writing the density matrix to GAMMA
   Lock file will be deleted
  Waiting for VASP lock to disappear...
 reading the density matrix from GAMMA
    0.114E-03
DAV:  19    -0.390869706595E+02   -0.10774E-05   -0.51918E-08 61848   0.162E-03  
 writing the density matrix to GAMMA
   Lock file will be deleted
Read parameters:
0  ->  {'m': 0, 'l': 2, 'isite': 2, 'label': 'dxy'}
1  ->  {'m': 1, 'l': 2, 'isite': 2, 'label': 'dyz'}
2  ->  {'m': 2, 'l': 2, 'isite': 2, 'label': 'dz2'}
3  ->  {'m': 3, 'l': 2, 'isite': 2, 'label': 'dxz'}
4  ->  {'m': 4, 'l': 2, 'isite': 2, 'label': 'dx2-y2'}
  Found POSCAR, title line: SrVO3
  Total number of ions: 5
  Number of types: 3
  Number of ions for each type: [1, 1, 3]

    Total number of k-points: 2197
   Total number of tetrahedra: 13182
!!! WARNING !!!: Error reading from EIGENVAL, trying LOCPROJ
eigvals from LOCPROJ

  Spin: 1
  Site: 2
  Density matrix                                                Overlap
   0.5893604   0.0004719  -0.0000868   0.0006582   0.0000017       0.9350586   0.0000013  -0.0000007   0.0000029   0.0000004
   0.0004719   0.5894264  -0.0000354  -0.0004856   0.0000611       0.0000013   0.9350485   0.0000002   0.0000017   0.0000009
  -0.0000868  -0.0000354   0.5818580  -0.0000420  -0.0000004      -0.0000007   0.0000002   0.9762581   0.0000013  -0.0000001
   0.0006582  -0.0004856  -0.0000420   0.5893574  -0.0000772       0.0000029   0.0000017   0.0000013   0.9350633   0.0000007
   0.0000017   0.0000611  -0.0000004  -0.0000772   0.5818576       0.0000004   0.0000009  -0.0000001   0.0000007   0.9762581

  Generating 1 shell...

    Shell         : 1
    Orbital l     : 2
    Number of ions: 1
    Dimension     : 3
Density matrix:
  Site 1
   0.3332631   0.0006345   0.0008760
   0.0006345   0.3333505  -0.0006526
   0.0008760  -0.0006526   0.3332583
    trace:  0.999871825826

  Impurity density: 0.999871825826

Overlap:
  Site 1
[[ 1.  0.  0.]
 [ 0.  1. -0.]
 [ 0. -0.  1.]]

Local Hamiltonian:
  Site 1
   0.5790535   0.0000001  -0.0000184
   0.0000001   0.5790478   0.0000013
  -0.0000184   0.0000013   0.5790543
  Storing ctrl-file...
  Storing PLO-group file 'vasp.pg1'...
  Density within window: 0.995983453898
Read parameters:
0  ->  {'m': 0, 'l': 2, 'isite': 2, 'label': 'dxy'}
1  ->  {'m': 1, 'l': 2, 'isite': 2, 'label': 'dyz'}
2  ->  {'m': 2, 'l': 2, 'isite': 2, 'label': 'dz2'}
3  ->  {'m': 3, 'l': 2, 'isite': 2, 'label': 'dxz'}
4  ->  {'m': 4, 'l': 2, 'isite': 2, 'label': 'dx2-y2'}
  Found POSCAR, title line: SrVO3
  Total number of ions: 5
  Number of types: 3
  Number of ions for each type: [1, 1, 3]

    Total number of k-points: 2197
   Total number of tetrahedra: 13182
!!! WARNING !!!: Error reading from EIGENVAL, trying LOCPROJ
##########################
dft cycle took   354.1979 seconds
calling dmft_cycle
DMFT iteration 5 / 100
##########################
Reading input from vasp.ctrl...
{
    "ngroups": 1,
    "nk": 2197,
    "ns": 1,
    "nc_flag": 0
}

  No. of inequivalent shells: 1
Dichotomy adjustment of Chemical Potential to obtain Total Density = 0.995983 +/- 0.000100
    Chemical Potential = -0.447320  
    Total Density = 0.346852
    0.052680 < Chemical Potential < -0.447320
    1.081421 < Total Density < 0.346852
    0.052680 < Chemical Potential < -0.005475
    1.081421 < Total Density < 0.933663
    0.052680 < Chemical Potential < 0.019053
    1.081421 < Total Density < 0.982163
    0.052680 < Chemical Potential < 0.023735
    1.081421 < Total Density < 0.993871
    0.052680 < Chemical Potential < 0.024434
    1.081421 < Total Density < 0.995686
    0.052680 < Chemical Potential < 0.024532
    1.081421 < Total Density < 0.995942
    Chemical Potential found in 6 iterations : 
    Total Density = 0.995942;Chemical Potential = 0.024532
reading block structure from previous calculation
Assuming U=6.50 for all correlated shells
Assuming J=0.65 for all correlated shells
*** Constructing the interaction Hamiltonian for shell 0 ***
*** Using the Kanamori Hamiltonian (with spin-flip and pair-hopping) ***
loading Sigma_imp0 from previous calculation
Dichotomy adjustment of Chemical Potential to obtain Total Density = 0.995983 +/- 0.000100
    Chemical Potential = 0.524532  
    Total Density = 1.299655
    0.024532 < Chemical Potential < 0.524532
    0.980559 < Total Density < 1.299655
    0.048701 < Chemical Potential < 0.524532
    0.993385 < Total Density < 1.299655
    0.052738 < Chemical Potential < 0.524532
    0.995551 < Total Density < 1.299655
    0.053409 < Chemical Potential < 0.524532
    0.995911 < Total Density < 1.299655
    Chemical Potential found in 4 iterations : 
    Total Density = 0.995911;Chemical Potential = 0.053409

*** System information summary ***
rot_mat[ 0]          real part                  imaginary part      
             1.00000  0.00000  0.00000    0.00000  0.00000  0.00000
             0.00000  1.00000  0.00000    0.00000  0.00000  0.00000
             0.00000  0.00000  1.00000    0.00000  0.00000  0.00000
 number of correlated shell types: 1
 -- Shell type #  0 : [0]
  | block struct. : {'up_2': [0], 'up_0': [0], 'up_1': [0], 'down_2': [0], 'down_1': [0], 'down_0': [0]}
  | deg. orbitals : [['up_2', 'up_0', 'up_1', 'down_2', 'down_1', 'down_0']]
Inverse temperature beta = 40.0
Sampling G(iw) in Legendre space with 35 coefficients
Kinetic energy contribution dft part: -0.393983790185
2 DMFT cycles requested. Starting with iteration 5.
################################################################################
Doing ITERATION: 5 / 6

*** Correlated Shell type #  0 : Total charge of impurity problem = 0.995871
Density matrix:
up_2
[[ 0.16597821]]
up_0
[[ 0.16597827]]
up_1
[[ 0.16597877]]
down_2
[[ 0.16597821]]
down_1
[[ 0.16597877]]
down_0
[[ 0.16597827]]


Solving the impurity problem for shell 0 ...
The local Hamiltonian of the problem:
-2.11572*C^+(down_0,0)C(down_0,0) + -2.11572*C^+(down_1,0)C(down_1,0) + -2.11572*C^+(down_2,0)C(down_2,0) + -2.11572*C^+(up_0,0)C(up_0,0) + -2.11572*C^+(up_1,0)C(up_1,0) + -2.11572*C^+(up_2,0)C(up_2,0) + 4.55*C^+(down_0,0)C^+(down_1,0)C(down_1,0)C(down_0,0) + 4.55*C^+(down_0,0)C^+(down_2,0)C(down_2,0)C(down_0,0) + 0.65*C^+(down_0,0)C^+(up_0,0)C(up_2,0)C(down_2,0) + 0.65*C^+(down_0,0)C^+(up_0,0)C(up_1,0)C(down_1,0) + 6.5*C^+(down_0,0)C^+(up_0,0)C(up_0,0)C(down_0,0) + 5.2*C^+(down_0,0)C^+(up_1,0)C(up_1,0)C(down_0,0) + 0.65*C^+(down_0,0)C^+(up_1,0)C(up_0,0)C(down_1,0) + 5.2*C^+(down_0,0)C^+(up_2,0)C(up_2,0)C(down_0,0) + 0.65*C^+(down_0,0)C^+(up_2,0)C(up_0,0)C(down_2,0) + 4.55*C^+(down_1,0)C^+(down_2,0)C(down_2,0)C(down_1,0) + 0.65*C^+(down_1,0)C^+(up_0,0)C(up_1,0)C(down_0,0) + 5.2*C^+(down_1,0)C^+(up_0,0)C(up_0,0)C(down_1,0) + 0.65*C^+(down_1,0)C^+(up_1,0)C(up_2,0)C(down_2,0) + 6.5*C^+(down_1,0)C^+(up_1,0)C(up_1,0)C(down_1,0) + 0.65*C^+(down_1,0)C^+(up_1,0)C(up_0,0)C(down_0,0) + 5.2*C^+(down_1,0)C^+(up_2,0)C(up_2,0)C(down_1,0) + 0.65*C^+(down_1,0)C^+(up_2,0)C(up_1,0)C(down_2,0) + 0.65*C^+(down_2,0)C^+(up_0,0)C(up_2,0)C(down_0,0) + 5.2*C^+(down_2,0)C^+(up_0,0)C(up_0,0)C(down_2,0) + 0.65*C^+(down_2,0)C^+(up_1,0)C(up_2,0)C(down_1,0) + 5.2*C^+(down_2,0)C^+(up_1,0)C(up_1,0)C(down_2,0) + 6.5*C^+(down_2,0)C^+(up_2,0)C(up_2,0)C(down_2,0) + 0.65*C^+(down_2,0)C^+(up_2,0)C(up_1,0)C(down_1,0) + 0.65*C^+(down_2,0)C^+(up_2,0)C(up_0,0)C(down_0,0) + 4.55*C^+(up_0,0)C^+(up_1,0)C(up_1,0)C(up_0,0) + 4.55*C^+(up_0,0)C^+(up_2,0)C(up_2,0)C(up_0,0) + 4.55*C^+(up_1,0)C^+(up_2,0)C(up_2,0)C(up_1,0)
Using autopartition algorithm to partition the local Hilbert space
Found 44 subspaces.

Warming up ...
1%; 2%; 3%; 4%; 5%; 6%; 7%; 8%; 9%; 10%; 11%; 12%; 13%; 14%; 15%; 16%; 17%; 18%; 19%; 20%; 21%; 22%; 23%; 24%; 25%; 26%; 27%; 28%; 29%; 30%; 31%; 32%; 33%; 34%; 35%; 36%; 37%; 38%; 39%; 40%; 41%; 42%; 43%; 44%; 45%; 46%; 47%; 48%; 49%; 50%; 51%; 52%; 53%; 54%; 55%; 56%; 57%; 58%; 59%; 60%; 61%; 62%; 63%; 64%; 65%; 66%; 67%; 68%; 69%; 70%; 71%; 72%; 73%; 74%; 75%; 76%; 77%; 78%; 79%; 80%; 81%; 82%; 83%; 84%; 85%; 86%; 87%; 88%; 89%; 90%; 91%; 92%; 93%; 94%; 95%; 96%; 97%; 98%; 99%; 100%; 
Accumulating ...
1%; 2%; 3%; 4%; 5%; 6%; 7%; 8%; 9%; 10%; 11%; 12%; 13%; 14%; 15%; 16%; 17%; 18%; 19%; 20%; 21%; 22%; 23%; 24%; 25%; 26%; 27%; 28%; 29%; 30%; 31%; 32%; 33%; 34%; 35%; 36%; 37%; 38%; 39%; 40%; 41%; 42%; 43%; 44%; 45%; 46%; 47%; 48%; 49%; 50%; 51%; 52%; 53%; 54%; 55%; 56%; 57%; 58%; 59%; 60%; 61%; 62%; 63%; 64%; 65%; 66%; 67%; 68%; 69%; 70%; 71%; 72%; 73%; 74%; 75%; 76%; 77%; 78%; 79%; 80%; 81%; 82%; 83%; 84%; 85%; 86%; 87%; 88%; 89%; 90%; 91%; 92%; 93%; 94%; 95%; 96%; 97%; 98%; 99%; 100%; 

[Node 0] Acceptance rate for all moves:
Move set Insert two operators: 0.0326452
  Move  Insert Delta_down_0: 0.0326547
  Move  Insert Delta_down_1: 0.0326499
  Move  Insert Delta_down_2: 0.0326469
  Move  Insert Delta_up_0: 0.0326412
  Move  Insert Delta_up_1: 0.0326421
  Move  Insert Delta_up_2: 0.0326362
Move set Remove two operators: 0.0326462
  Move  Remove Delta_down_0: 0.0326547
  Move  Remove Delta_down_1: 0.0326509
  Move  Remove Delta_down_2: 0.0326461
  Move  Remove Delta_up_0: 0.0326424
  Move  Remove Delta_up_1: 0.0326433
  Move  Remove Delta_up_2: 0.0326398
Move set Insert four operators: 0.00229568
  Move  Insert Delta_down_0_down_0: 0.00219708
  Move  Insert Delta_down_0_down_1: 0.00239547
  Move  Insert Delta_down_0_down_2: 0.0023809
  Move  Insert Delta_down_0_up_0: 0.00223705
  Move  Insert Delta_down_0_up_1: 0.0022789
  Move  Insert Delta_down_0_up_2: 0.00228057
  Move  Insert Delta_down_1_down_0: 0.00238614
  Move  Insert Delta_down_1_down_1: 0.00219454
  Move  Insert Delta_down_1_down_2: 0.0023887
  Move  Insert Delta_down_1_up_0: 0.00228866
  Move  Insert Delta_down_1_up_1: 0.00224561
  Move  Insert Delta_down_1_up_2: 0.00228658
  Move  Insert Delta_down_2_down_0: 0.00238778
  Move  Insert Delta_down_2_down_1: 0.00238237
  Move  Insert Delta_down_2_down_2: 0.00219211
  Move  Insert Delta_down_2_up_0: 0.00228408
  Move  Insert Delta_down_2_up_1: 0.00228242
  Move  Insert Delta_down_2_up_2: 0.00224399
  Move  Insert Delta_up_0_down_0: 0.00223491
  Move  Insert Delta_up_0_down_1: 0.00228165
  Move  Insert Delta_up_0_down_2: 0.00228175
  Move  Insert Delta_up_0_up_0: 0.0022024
  Move  Insert Delta_up_0_up_1: 0.00237331
  Move  Insert Delta_up_0_up_2: 0.00239852
  Move  Insert Delta_up_1_down_0: 0.00227479
  Move  Insert Delta_up_1_down_1: 0.00223884
  Move  Insert Delta_up_1_down_2: 0.00227331
  Move  Insert Delta_up_1_up_0: 0.00239069
  Move  Insert Delta_up_1_up_1: 0.00218845
  Move  Insert Delta_up_1_up_2: 0.00238712
  Move  Insert Delta_up_2_down_0: 0.00228924
  Move  Insert Delta_up_2_down_1: 0.00227488
  Move  Insert Delta_up_2_down_2: 0.00224265
  Move  Insert Delta_up_2_up_0: 0.00239358
  Move  Insert Delta_up_2_up_1: 0.00238856
  Move  Insert Delta_up_2_up_2: 0.00219692
Move set Remove four operators: 0.00229443
  Move  Remove Delta_down_0_down_0: 0.00218995
  Move  Remove Delta_down_0_down_1: 0.00238297
  Move  Remove Delta_down_0_down_2: 0.00238144
  Move  Remove Delta_down_0_up_0: 0.00223835
  Move  Remove Delta_down_0_up_1: 0.00227539
  Move  Remove Delta_down_0_up_2: 0.00228209
  Move  Remove Delta_down_1_down_0: 0.00239929
  Move  Remove Delta_down_1_down_1: 0.00218719
  Move  Remove Delta_down_1_down_2: 0.00238695
  Move  Remove Delta_down_1_up_0: 0.00228442
  Move  Remove Delta_down_1_up_1: 0.00224119
  Move  Remove Delta_down_1_up_2: 0.002279
  Move  Remove Delta_down_2_down_0: 0.00239621
  Move  Remove Delta_down_2_down_1: 0.00238181
  Move  Remove Delta_down_2_down_2: 0.00219129
  Move  Remove Delta_down_2_up_0: 0.00228107
  Move  Remove Delta_down_2_up_1: 0.00228049
  Move  Remove Delta_down_2_up_2: 0.00223677
  Move  Remove Delta_up_0_down_0: 0.00224669
  Move  Remove Delta_up_0_down_1: 0.00227769
  Move  Remove Delta_up_0_down_2: 0.00228045
  Move  Remove Delta_up_0_up_0: 0.00219436
  Move  Remove Delta_up_0_up_1: 0.00237981
  Move  Remove Delta_up_0_up_2: 0.00238568
  Move  Remove Delta_up_1_down_0: 0.00227661
  Move  Remove Delta_up_1_down_1: 0.00223933
  Move  Remove Delta_up_1_down_2: 0.00227866
  Move  Remove Delta_up_1_up_0: 0.0023901
  Move  Remove Delta_up_1_up_1: 0.002192
  Move  Remove Delta_up_1_up_2: 0.00237759
  Move  Remove Delta_up_2_down_0: 0.00228599
  Move  Remove Delta_up_2_down_1: 0.00228631
  Move  Remove Delta_up_2_down_2: 0.00224669
  Move  Remove Delta_up_2_up_0: 0.00238741
  Move  Remove Delta_up_2_up_1: 0.00238305
  Move  Remove Delta_up_2_up_2: 0.00219515
Move  Shift one operator: 0.100601
[Node 0] Simulation lasted: 271 seconds
[Node 0] Number of measures: 166666
Total number of measures: 59999760
Average sign: 0.999983
solver took   291.7270 seconds
Total charge convergency of impurity problem : 0.009693
Density matrix:
up_2
[[ 0.16885443]]
up_0
[[ 0.1662579]]
up_1
[[ 0.16796547]]
down_2
[[ 0.16819879]]
down_1
[[ 0.1672247]]
down_0
[[ 0.16706236]]


*** Post-processing the solver output ***
Total charge of all correlated shells : 1.005564
DC for shell 0 and block up = 2.623930
DC for shell 0 and block down = 2.623930
DC energy for shell 0 = 0.0120200233611
Dichotomy adjustment of Chemical Potential to obtain Total Density = 0.995983 +/- 0.000100
    Chemical Potential = 0.553409  
    Total Density = 1.268870
    0.053409 < Chemical Potential < 0.553409
    0.987439 < Total Density < 1.268870
    0.068590 < Chemical Potential < 0.553409
    0.994632 < Total Density < 1.268870
    0.070980 < Chemical Potential < 0.553409
    0.995771 < Total Density < 1.268870
    0.071355 < Chemical Potential < 0.553409
    0.995950 < Total Density < 1.268870
    Chemical Potential found in 4 iterations : 
    Total Density = 0.995950;Chemical Potential = 0.071355
Kinetic energy contribution dmft part: 0.40630048779
energy contribution of correlated shell 0 = 0.0884984242228
Trace of Density Matrix: {'down': (-0.0020249133502512652-1.3263403393810465e-17j), 'up': (-0.0020249133502512652-1.3263403393810465e-17j)}
band energy correction: 0.806314761302
Writing direct observables to text file
################################################################################
Doing ITERATION: 6 / 6

*** Correlated Shell type #  0 : Total charge of impurity problem = 0.995913
Density matrix:
up_2
[[ 0.16598524]]
up_0
[[ 0.16598529]]
up_1
[[ 0.16598574]]
down_2
[[ 0.16598524]]
down_1
[[ 0.16598574]]
down_0
[[ 0.16598529]]


Solving the impurity problem for shell 0 ...
The local Hamiltonian of the problem:
-2.11623*C^+(down_0,0)C(down_0,0) + -2.11623*C^+(down_1,0)C(down_1,0) + -2.11623*C^+(down_2,0)C(down_2,0) + -2.11623*C^+(up_0,0)C(up_0,0) + -2.11623*C^+(up_1,0)C(up_1,0) + -2.11623*C^+(up_2,0)C(up_2,0) + 4.55*C^+(down_0,0)C^+(down_1,0)C(down_1,0)C(down_0,0) + 4.55*C^+(down_0,0)C^+(down_2,0)C(down_2,0)C(down_0,0) + 0.65*C^+(down_0,0)C^+(up_0,0)C(up_2,0)C(down_2,0) + 0.65*C^+(down_0,0)C^+(up_0,0)C(up_1,0)C(down_1,0) + 6.5*C^+(down_0,0)C^+(up_0,0)C(up_0,0)C(down_0,0) + 5.2*C^+(down_0,0)C^+(up_1,0)C(up_1,0)C(down_0,0) + 0.65*C^+(down_0,0)C^+(up_1,0)C(up_0,0)C(down_1,0) + 5.2*C^+(down_0,0)C^+(up_2,0)C(up_2,0)C(down_0,0) + 0.65*C^+(down_0,0)C^+(up_2,0)C(up_0,0)C(down_2,0) + 4.55*C^+(down_1,0)C^+(down_2,0)C(down_2,0)C(down_1,0) + 0.65*C^+(down_1,0)C^+(up_0,0)C(up_1,0)C(down_0,0) + 5.2*C^+(down_1,0)C^+(up_0,0)C(up_0,0)C(down_1,0) + 0.65*C^+(down_1,0)C^+(up_1,0)C(up_2,0)C(down_2,0) + 6.5*C^+(down_1,0)C^+(up_1,0)C(up_1,0)C(down_1,0) + 0.65*C^+(down_1,0)C^+(up_1,0)C(up_0,0)C(down_0,0) + 5.2*C^+(down_1,0)C^+(up_2,0)C(up_2,0)C(down_1,0) + 0.65*C^+(down_1,0)C^+(up_2,0)C(up_1,0)C(down_2,0) + 0.65*C^+(down_2,0)C^+(up_0,0)C(up_2,0)C(down_0,0) + 5.2*C^+(down_2,0)C^+(up_0,0)C(up_0,0)C(down_2,0) + 0.65*C^+(down_2,0)C^+(up_1,0)C(up_2,0)C(down_1,0) + 5.2*C^+(down_2,0)C^+(up_1,0)C(up_1,0)C(down_2,0) + 6.5*C^+(down_2,0)C^+(up_2,0)C(up_2,0)C(down_2,0) + 0.65*C^+(down_2,0)C^+(up_2,0)C(up_1,0)C(down_1,0) + 0.65*C^+(down_2,0)C^+(up_2,0)C(up_0,0)C(down_0,0) + 4.55*C^+(up_0,0)C^+(up_1,0)C(up_1,0)C(up_0,0) + 4.55*C^+(up_0,0)C^+(up_2,0)C(up_2,0)C(up_0,0) + 4.55*C^+(up_1,0)C^+(up_2,0)C(up_2,0)C(up_1,0)
Using autopartition algorithm to partition the local Hilbert space
Found 44 subspaces.

Warming up ...
1%; 2%; 3%; 4%; 5%; 6%; 7%; 8%; 9%; 10%; 11%; 12%; 13%; 14%; 15%; 16%; 17%; 18%; 19%; 20%; 21%; 22%; 23%; 24%; 25%; 26%; 27%; 28%; 29%; 30%; 31%; 32%; 33%; 34%; 35%; 36%; 37%; 38%; 39%; 40%; 41%; 42%; 43%; 44%; 45%; 46%; 47%; 48%; 49%; 50%; 51%; 52%; 53%; 54%; 55%; 56%; 57%; 58%; 59%; 60%; 61%; 62%; 63%; 64%; 65%; 66%; 67%; 68%; 69%; 70%; 71%; 72%; 73%; 74%; 75%; 76%; 77%; 78%; 79%; 80%; 81%; 82%; 83%; 84%; 85%; 86%; 87%; 88%; 89%; 90%; 91%; 92%; 93%; 94%; 95%; 96%; 97%; 98%; 99%; 100%; 
Accumulating ...
1%; 2%; 3%; 4%; 5%; 6%; 7%; 8%; 9%; 10%; 11%; 12%; 13%; 14%; 15%; 16%; 17%; 18%; 19%; 20%; 21%; 22%; 23%; 24%; 25%; 26%; 27%; 28%; 29%; 30%; 31%; 32%; 33%; 34%; 35%; 36%; 37%; 38%; 39%; 40%; 41%; 42%; 43%; 44%; 45%; 46%; 47%; 48%; 49%; 50%; 51%; 52%; 53%; 54%; 55%; 56%; 57%; 58%; 59%; 60%; 61%; 62%; 63%; 64%; 65%; 66%; 67%; 68%; 69%; 70%; 71%; 72%; 73%; 74%; 75%; 76%; 77%; 78%; 79%; 80%; 81%; 82%; 83%; 84%; 85%; 86%; 87%; 88%; 89%; 90%; 91%; 92%; 93%; 94%; 95%; 96%; 97%; 98%; 99%; 100%; 

[Node 0] Acceptance rate for all moves:
Move set Insert two operators: 0.0321665
  Move  Insert Delta_down_0: 0.0321793
  Move  Insert Delta_down_1: 0.0321723
  Move  Insert Delta_down_2: 0.0321615
  Move  Insert Delta_up_0: 0.0321553
  Move  Insert Delta_up_1: 0.0321711
  Move  Insert Delta_up_2: 0.0321597
Move set Remove two operators: 0.0321636
  Move  Remove Delta_down_0: 0.03217
  Move  Remove Delta_down_1: 0.0321665
  Move  Remove Delta_down_2: 0.03216
  Move  Remove Delta_up_0: 0.032156
  Move  Remove Delta_up_1: 0.0321686
  Move  Remove Delta_up_2: 0.0321605
Move set Insert four operators: 0.00226846
  Move  Insert Delta_down_0_down_0: 0.00206871
  Move  Insert Delta_down_0_down_1: 0.00238884
  Move  Insert Delta_down_0_down_2: 0.00239132
  Move  Insert Delta_down_0_up_0: 0.00219934
  Move  Insert Delta_down_0_up_1: 0.00227287
  Move  Insert Delta_down_0_up_2: 0.00227197
  Move  Insert Delta_down_1_down_0: 0.00238565
  Move  Insert Delta_down_1_down_1: 0.00206941
  Move  Insert Delta_down_1_down_2: 0.00239293
  Move  Insert Delta_down_1_up_0: 0.00227579
  Move  Insert Delta_down_1_up_1: 0.00220814
  Move  Insert Delta_down_1_up_2: 0.00227306
  Move  Insert Delta_down_2_down_0: 0.0023872
  Move  Insert Delta_down_2_down_1: 0.0023879
  Move  Insert Delta_down_2_down_2: 0.00207951
  Move  Insert Delta_down_2_up_0: 0.00227571
  Move  Insert Delta_down_2_up_1: 0.00226979
  Move  Insert Delta_down_2_up_2: 0.00221611
  Move  Insert Delta_up_0_down_0: 0.00221506
  Move  Insert Delta_up_0_down_1: 0.00227226
  Move  Insert Delta_up_0_down_2: 0.00226714
  Move  Insert Delta_up_0_up_0: 0.00208063
  Move  Insert Delta_up_0_up_1: 0.0023897
  Move  Insert Delta_up_0_up_2: 0.0023971
  Move  Insert Delta_up_1_down_0: 0.00227233
  Move  Insert Delta_up_1_down_1: 0.00221141
  Move  Insert Delta_up_1_down_2: 0.00227564
  Move  Insert Delta_up_1_up_0: 0.00238519
  Move  Insert Delta_up_1_up_1: 0.0020777
  Move  Insert Delta_up_1_up_2: 0.00239606
  Move  Insert Delta_up_2_down_0: 0.0022754
  Move  Insert Delta_up_2_down_1: 0.00226643
  Move  Insert Delta_up_2_down_2: 0.00221006
  Move  Insert Delta_up_2_up_0: 0.00239048
  Move  Insert Delta_up_2_up_1: 0.00238672
  Move  Insert Delta_up_2_up_2: 0.00208081
Move set Remove four operators: 0.00226933
  Move  Remove Delta_down_0_down_0: 0.00208244
  Move  Remove Delta_down_0_down_1: 0.00239568
  Move  Remove Delta_down_0_down_2: 0.00239002
  Move  Remove Delta_down_0_up_0: 0.00220955
  Move  Remove Delta_down_0_up_1: 0.00227258
  Move  Remove Delta_down_0_up_2: 0.00227873
  Move  Remove Delta_down_1_down_0: 0.00238563
  Move  Remove Delta_down_1_down_1: 0.00207191
  Move  Remove Delta_down_1_down_2: 0.0023929
  Move  Remove Delta_down_1_up_0: 0.00227922
  Move  Remove Delta_down_1_up_1: 0.00220888
  Move  Remove Delta_down_1_up_2: 0.00226991
  Move  Remove Delta_down_2_down_0: 0.00238751
  Move  Remove Delta_down_2_down_1: 0.00238296
  Move  Remove Delta_down_2_down_2: 0.00208289
  Move  Remove Delta_down_2_up_0: 0.00227513
  Move  Remove Delta_down_2_up_1: 0.00227431
  Move  Remove Delta_down_2_up_2: 0.00221808
  Move  Remove Delta_up_0_down_0: 0.00221127
  Move  Remove Delta_up_0_down_1: 0.00227824
  Move  Remove Delta_up_0_down_2: 0.0022602
  Move  Remove Delta_up_0_up_0: 0.00207181
  Move  Remove Delta_up_0_up_1: 0.00238611
  Move  Remove Delta_up_0_up_2: 0.00239105
  Move  Remove Delta_up_1_down_0: 0.00227138
  Move  Remove Delta_up_1_down_1: 0.00221354
  Move  Remove Delta_up_1_down_2: 0.00228454
  Move  Remove Delta_up_1_up_0: 0.00239408
  Move  Remove Delta_up_1_up_1: 0.00207688
  Move  Remove Delta_up_1_up_2: 0.00239378
  Move  Remove Delta_up_2_down_0: 0.00227413
  Move  Remove Delta_up_2_down_1: 0.00226616
  Move  Remove Delta_up_2_down_2: 0.00221231
  Move  Remove Delta_up_2_up_0: 0.00238874
  Move  Remove Delta_up_2_up_1: 0.00239715
  Move  Remove Delta_up_2_up_2: 0.00206611
Move  Shift one operator: 0.0832013
[Node 0] Simulation lasted: 251 seconds
[Node 0] Number of measures: 166666
Total number of measures: 59999760
Average sign: 0.999977
solver took   270.7178 seconds
Total charge convergency of impurity problem : 0.009276
Density matrix:
up_2
[[ 0.16749271]]
up_0
[[ 0.16620466]]
up_1
[[ 0.16899836]]
down_2
[[ 0.16814521]]
down_1
[[ 0.16680599]]
down_0
[[ 0.16754178]]


*** Post-processing the solver output ***
Total charge of all correlated shells : 1.005189
DC for shell 0 and block up = 2.622158
DC for shell 0 and block down = 2.622158
DC energy for shell 0 = 0.0111260245253
Dichotomy adjustment of Chemical Potential to obtain Total Density = 0.995983 +/- 0.000100
    Chemical Potential = -0.428645  
    Total Density = 0.816655
    0.071355 < Chemical Potential < -0.428645
    0.996420 < Total Density < 0.816655
    0.071355 < Chemical Potential < 0.070141
    0.996420 < Total Density < 0.995915
    Chemical Potential found in 2 iterations : 
    Total Density = 0.995915;Chemical Potential = 0.070141
Kinetic energy contribution dmft part: 0.43516182888
energy contribution of correlated shell 0 = 0.060485997884
Trace of Density Matrix: {'down': (-0.0020424595734465784+2.3093812248700828e-17j), 'up': (-0.0020424595734465784+2.3093812248700828e-17j)}
band energy correction: 0.835176100132
Writing direct observables to text file
all requested iterations finished
######################################################### 


================================================================================
  Total energy:  -39.8727867863
  DFT energy:  -39.0869706595
  Corr. energy:  0.0493599733588
  DFT DC:  0.835176100132
================================================================================

  Waiting for VASP lock to disappear...
 reading the density matrix from GAMMA
    0.150E-01
DAV:  20    -0.390871167311E+02   -0.14607E-03   -0.76099E-06122880   0.218E-02  
 writing the density matrix to GAMMA
   Lock file will be deleted
  Waiting for VASP lock to disappear...
 reading the density matrix from GAMMA
    0.832E-02
DAV:  21    -0.390872043970E+02   -0.87666E-04   -0.27090E-06107652   0.131E-02  
 writing the density matrix to GAMMA
   Lock file will be deleted
  Waiting for VASP lock to disappear...
 reading the density matrix from GAMMA
    0.435E-02
DAV:  22    -0.390872274920E+02   -0.23095E-04   -0.29232E-07 58860   0.390E-03  
 writing the density matrix to GAMMA
   Lock file will be deleted
  Waiting for VASP lock to disappear...
 reading the density matrix from GAMMA
    0.331E-02
DAV:  23    -0.390872809089E+02   -0.53417E-04   -0.95790E-07 55872   0.782E-03  
 writing the density matrix to GAMMA
   Lock file will be deleted
  Waiting for VASP lock to disappear...
 reading the density matrix from GAMMA
    0.101E-02
DAV:  24    -0.390872974693E+02   -0.16560E-04   -0.32763E-07 56328   0.355E-03  
 writing the density matrix to GAMMA
   Lock file will be deleted
  Waiting for VASP lock to disappear...
 reading the density matrix from GAMMA
    0.269E-03
DAV:  25    -0.390873007690E+02   -0.32998E-05   -0.50465E-08 54612   0.179E-03  
 writing the density matrix to GAMMA
   Lock file will be deleted
  Waiting for VASP lock to disappear...
 reading the density matrix from GAMMA
    0.143E-03
DAV:  26    -0.390873083742E+02   -0.76052E-05   -0.50774E-08 55752   0.153E-03  
 writing the density matrix to GAMMA
   Lock file will be deleted
Read parameters:
0  ->  {'m': 0, 'l': 2, 'isite': 2, 'label': 'dxy'}
1  ->  {'m': 1, 'l': 2, 'isite': 2, 'label': 'dyz'}
2  ->  {'m': 2, 'l': 2, 'isite': 2, 'label': 'dz2'}
3  ->  {'m': 3, 'l': 2, 'isite': 2, 'label': 'dxz'}
4  ->  {'m': 4, 'l': 2, 'isite': 2, 'label': 'dx2-y2'}
  Found POSCAR, title line: SrVO3
  Total number of ions: 5
  Number of types: 3
  Number of ions for each type: [1, 1, 3]

    Total number of k-points: 2197
   Total number of tetrahedra: 13182
!!! WARNING !!!: Error reading from EIGENVAL, trying LOCPROJ
eigvals from LOCPROJ

  Spin: 1
  Site: 2
  Density matrix                                                Overlap
   0.5895245   0.0004722  -0.0001044   0.0004085  -0.0000021       0.9350631   0.0000002  -0.0000004   0.0000035  -0.0000000
   0.0004722   0.5896189  -0.0000450  -0.0002714   0.0000812       0.0000002   0.9350583   0.0000001   0.0000002   0.0000006
  -0.0001044  -0.0000450   0.5819623  -0.0000406  -0.0000003      -0.0000004   0.0000001   0.9762648   0.0000006  -0.0000001
   0.0004085  -0.0002714  -0.0000406   0.5895549  -0.0000777       0.0000035   0.0000002   0.0000006   0.9350664   0.0000004
  -0.0000021   0.0000812  -0.0000003  -0.0000777   0.5819631      -0.0000000   0.0000006  -0.0000001   0.0000004   0.9762648

  Generating 1 shell...

    Shell         : 1
    Orbital l     : 2
    Number of ions: 1
    Dimension     : 3
[...]
  Total energy:  -39.9698925379
  DFT energy:  -39.0874625771
  Corr. energy:  -0.018203927368
  DFT DC:  0.864226033411
================================================================================

  Waiting for VASP lock to disappear...
 reading the density matrix from GAMMA
    0.360E-03
DAV:  55    -0.390874627782E+02   -0.20110E-06   -0.69994E-11 53772   0.693E-05  
 writing the density matrix to GAMMA
   Lock file will be deleted
  Waiting for VASP lock to disappear...
 reading the density matrix from GAMMA
    0.378E-03
DAV:  56    -0.390874630493E+02   -0.27113E-06   -0.28944E-11 54216   0.435E-05  
 writing the density matrix to GAMMA
   Lock file will be deleted
  Waiting for VASP lock to disappear...
 reading the density matrix from GAMMA
    0.345E-03
DAV:  57    -0.390874630495E+02   -0.20282E-09   -0.59128E-12 53820   0.232E-05  
 writing the density matrix to GAMMA
   Lock file will be deleted
  Waiting for VASP lock to disappear...
 reading the density matrix from GAMMA
    0.316E-03
DAV:  58    -0.390874647954E+02   -0.17458E-05   -0.77115E-10 54168   0.242E-04  
 writing the density matrix to GAMMA
   Lock file will be deleted
  Waiting for VASP lock to disappear...
 reading the density matrix from GAMMA
    0.242E-03
DAV:  59    -0.390874653871E+02   -0.59172E-06   -0.24913E-10 53784   0.109E-04  
 writing the density matrix to GAMMA
   Lock file will be deleted
  Waiting for VASP lock to disappear...
 reading the density matrix from GAMMA
    0.245E-03
DAV:  60    -0.390874658784E+02   -0.49131E-06   -0.87299E-11 54096   0.725E-05  
 writing the density matrix to GAMMA
   Lock file will be deleted
  Waiting for VASP lock to disappear...
 reading the density matrix from GAMMA
    0.257E-03
DAV:  61    -0.390874658027E+02    0.75646E-07   -0.19849E-11 53832   0.413E-05  
 writing the density matrix to GAMMA
   Lock file will be deleted
Read parameters:
0  ->  {'m': 0, 'l': 2, 'isite': 2, 'label': 'dxy'}
1  ->  {'m': 1, 'l': 2, 'isite': 2, 'label': 'dyz'}
2  ->  {'m': 2, 'l': 2, 'isite': 2, 'label': 'dz2'}
3  ->  {'m': 3, 'l': 2, 'isite': 2, 'label': 'dxz'}
4  ->  {'m': 4, 'l': 2, 'isite': 2, 'label': 'dx2-y2'}
  Found POSCAR, title line: SrVO3
  Total number of ions: 5
  Number of types: 3
  Number of ions for each type: [1, 1, 3]

    Total number of k-points: 2197
   Total number of tetrahedra: 13182
!!! WARNING !!!: Error reading from EIGENVAL, trying LOCPROJ
eigvals from LOCPROJ

  Spin: 1
  Site: 2
  Density matrix                                                Overlap
   0.5896047   0.0004979  -0.0000904   0.0006847   0.0000025       0.9350655  -0.0000002   0.0000004   0.0000031  -0.0000001
   0.0004979   0.5896554  -0.0000297  -0.0004525   0.0000517      -0.0000002   0.9350680   0.0000002  -0.0000016  -0.0000005
  -0.0000904  -0.0000297   0.5819979  -0.0000412  -0.0000001       0.0000004   0.0000002   0.9762673  -0.0000000  -0.0000000
   0.0006847  -0.0004525  -0.0000412   0.5896350  -0.0000740       0.0000031  -0.0000016  -0.0000000   0.9350617  -0.0000001
   0.0000025   0.0000517  -0.0000001  -0.0000740   0.5819984      -0.0000001  -0.0000005  -0.0000000  -0.0000001   0.9762673

  Generating 1 shell...

    Shell         : 1
    Orbital l     : 2
    Number of ions: 1
    Dimension     : 3
Density matrix:
  Site 1
   0.3332553   0.0006680   0.0009045
   0.0006680   0.3333211  -0.0006101
   0.0009045  -0.0006101   0.3332955
    trace:  0.99987187628

  Impurity density: 0.99987187628

Overlap:
  Site 1
[[ 1.  0.  0.]
 [ 0.  1. -0.]
 [ 0. -0.  1.]]

Local Hamiltonian:
  Site 1
   0.5793540  -0.0000091  -0.0000682
  -0.0000091   0.5793634  -0.0000074
  -0.0000682  -0.0000074   0.5793462
  Storing ctrl-file...
  Storing PLO-group file 'vasp.pg1'...
  Density within window: 0.995983001772
Read parameters:
0  ->  {'m': 0, 'l': 2, 'isite': 2, 'label': 'dxy'}
1  ->  {'m': 1, 'l': 2, 'isite': 2, 'label': 'dyz'}
2  ->  {'m': 2, 'l': 2, 'isite': 2, 'label': 'dz2'}
3  ->  {'m': 3, 'l': 2, 'isite': 2, 'label': 'dxz'}
4  ->  {'m': 4, 'l': 2, 'isite': 2, 'label': 'dx2-y2'}
  Found POSCAR, title line: SrVO3
  Total number of ions: 5
  Number of types: 3
  Number of ions for each type: [1, 1, 3]

    Total number of k-points: 2197
   Total number of tetrahedra: 13182
!!! WARNING !!!: Error reading from EIGENVAL, trying LOCPROJ
##########################
dft cycle took   307.0147 seconds
calling dmft_cycle
DMFT iteration 17 / 100
##########################
Reading input from vasp.ctrl...
{
    "ngroups": 1,
    "nk": 2197,
    "ns": 1,
    "nc_flag": 0
}

  No. of inequivalent shells: 1
Dichotomy adjustment of Chemical Potential to obtain Total Density = 0.995983 +/- 0.000100
    Chemical Potential = 0.349974  
    Total Density = 1.647189
    -0.150026 < Chemical Potential < 0.349974
    0.786643 < Total Density < 1.647189
    -0.028394 < Chemical Potential < 0.349974
    0.903443 < Total Density < 1.647189
    0.018684 < Chemical Potential < 0.349974
    0.981103 < Total Density < 1.647189
    0.018684 < Chemical Potential < 0.026085
    0.981103 < Total Density < 0.999848
    0.024559 < Chemical Potential < 0.026085
    0.995820 < Total Density < 0.999848
    0.024621 < Chemical Potential < 0.026085
    0.995981 < Total Density < 0.999848
    Chemical Potential found in 6 iterations : 
    Total Density = 0.995981;Chemical Potential = 0.024621
reading block structure from previous calculation
Assuming U=6.50 for all correlated shells
Assuming J=0.65 for all correlated shells
*** Constructing the interaction Hamiltonian for shell 0 ***
*** Using the Kanamori Hamiltonian (with spin-flip and pair-hopping) ***
loading Sigma_imp0 from previous calculation
Dichotomy adjustment of Chemical Potential to obtain Total Density = 0.995983 +/- 0.000100
    Chemical Potential = -0.475379  
    Total Density = 0.891333
    0.024621 < Chemical Potential < -0.475379
    1.058227 < Total Density < 0.891333
    0.024621 < Chemical Potential < -0.161857
    1.058227 < Total Density < 0.991918
    0.024621 < Chemical Potential < -0.150426
    1.058227 < Total Density < 0.995838
    0.024621 < Chemical Potential < -0.150020
    1.058227 < Total Density < 0.995978
    Chemical Potential found in 4 iterations : 
    Total Density = 0.995978;Chemical Potential = -0.150020

*** System information summary ***
rot_mat[ 0]          real part                  imaginary part      
             1.00000  0.00000  0.00000    0.00000  0.00000  0.00000
             0.00000  1.00000  0.00000    0.00000  0.00000  0.00000
             0.00000  0.00000  1.00000    0.00000  0.00000  0.00000
 number of correlated shell types: 1
 -- Shell type #  0 : [0]
  | block struct. : {'up_2': [0], 'up_0': [0], 'up_1': [0], 'down_2': [0], 'down_1': [0], 'down_0': [0]}
  | deg. orbitals : [['up_2', 'up_0', 'up_1', 'down_2', 'down_1', 'down_0']]
Inverse temperature beta = 40.0
Sampling G(iw) in Legendre space with 35 coefficients
Kinetic energy contribution dft part: -0.394275347804
2 DMFT cycles requested. Starting with iteration 17.
################################################################################
Doing ITERATION: 17 / 18

*** Correlated Shell type #  0 : Total charge of impurity problem = 0.995951
Density matrix:
up_2
[[ 0.16599235]]
up_0
[[ 0.16599191]]
up_1
[[ 0.16599137]]
down_2
[[ 0.16599235]]
down_1
[[ 0.16599137]]
down_0
[[ 0.16599191]]


Solving the impurity problem for shell 0 ...
The local Hamiltonian of the problem:
-1.89708*C^+(down_0,0)C(down_0,0) + -1.89708*C^+(down_1,0)C(down_1,0) + -1.89708*C^+(down_2,0)C(down_2,0) + -1.89708*C^+(up_0,0)C(up_0,0) + -1.89708*C^+(up_1,0)C(up_1,0) + -1.89708*C^+(up_2,0)C(up_2,0) + 4.55*C^+(down_0,0)C^+(down_1,0)C(down_1,0)C(down_0,0) + 4.55*C^+(down_0,0)C^+(down_2,0)C(down_2,0)C(down_0,0) + 0.65*C^+(down_0,0)C^+(up_0,0)C(up_2,0)C(down_2,0) + 0.65*C^+(down_0,0)C^+(up_0,0)C(up_1,0)C(down_1,0) + 6.5*C^+(down_0,0)C^+(up_0,0)C(up_0,0)C(down_0,0) + 5.2*C^+(down_0,0)C^+(up_1,0)C(up_1,0)C(down_0,0) + 0.65*C^+(down_0,0)C^+(up_1,0)C(up_0,0)C(down_1,0) + 5.2*C^+(down_0,0)C^+(up_2,0)C(up_2,0)C(down_0,0) + 0.65*C^+(down_0,0)C^+(up_2,0)C(up_0,0)C(down_2,0) + 4.55*C^+(down_1,0)C^+(down_2,0)C(down_2,0)C(down_1,0) + 0.65*C^+(down_1,0)C^+(up_0,0)C(up_1,0)C(down_0,0) + 5.2*C^+(down_1,0)C^+(up_0,0)C(up_0,0)C(down_1,0) + 0.65*C^+(down_1,0)C^+(up_1,0)C(up_2,0)C(down_2,0) + 6.5*C^+(down_1,0)C^+(up_1,0)C(up_1,0)C(down_1,0) + 0.65*C^+(down_1,0)C^+(up_1,0)C(up_0,0)C(down_0,0) + 5.2*C^+(down_1,0)C^+(up_2,0)C(up_2,0)C(down_1,0) + 0.65*C^+(down_1,0)C^+(up_2,0)C(up_1,0)C(down_2,0) + 0.65*C^+(down_2,0)C^+(up_0,0)C(up_2,0)C(down_0,0) + 5.2*C^+(down_2,0)C^+(up_0,0)C(up_0,0)C(down_2,0) + 0.65*C^+(down_2,0)C^+(up_1,0)C(up_2,0)C(down_1,0) + 5.2*C^+(down_2,0)C^+(up_1,0)C(up_1,0)C(down_2,0) + 6.5*C^+(down_2,0)C^+(up_2,0)C(up_2,0)C(down_2,0) + 0.65*C^+(down_2,0)C^+(up_2,0)C(up_1,0)C(down_1,0) + 0.65*C^+(down_2,0)C^+(up_2,0)C(up_0,0)C(down_0,0) + 4.55*C^+(up_0,0)C^+(up_1,0)C(up_1,0)C(up_0,0) + 4.55*C^+(up_0,0)C^+(up_2,0)C(up_2,0)C(up_0,0) + 4.55*C^+(up_1,0)C^+(up_2,0)C(up_2,0)C(up_1,0)
Using autopartition algorithm to partition the local Hilbert space
Found 44 subspaces.

Warming up ...
1%; 2%; 3%; 4%; 5%; 6%; 7%; 8%; 9%; 10%; 11%; 12%; 13%; 14%; 15%; 16%; 17%; 18%; 19%; 20%; 21%; 22%; 23%; 24%; 25%; 26%; 27%; 28%; 29%; 30%; 31%; 32%; 33%; 34%; 35%; 36%; 37%; 38%; 39%; 40%; 41%; 42%; 43%; 44%; 45%; 46%; 47%; 48%; 49%; 50%; 51%; 52%; 53%; 54%; 55%; 56%; 57%; 58%; 59%; 60%; 61%; 62%; 63%; 64%; 65%; 66%; 67%; 68%; 69%; 70%; 71%; 72%; 73%; 74%; 75%; 76%; 77%; 78%; 79%; 80%; 81%; 82%; 83%; 84%; 85%; 86%; 87%; 88%; 89%; 90%; 91%; 92%; 93%; 94%; 95%; 96%; 97%; 98%; 99%; 100%; 
Accumulating ...
1%; 2%; 3%; 4%; 5%; 6%; 7%; 8%; 9%; 10%; 11%; 12%; 13%; 14%; 15%; 16%; 17%; 18%; 19%; 20%; 21%; 22%; 23%; 24%; 25%; 26%; 27%; 28%; 29%; 30%; 31%; 32%; 33%; 34%; 35%; 36%; 37%; 38%; 39%; 40%; 41%; 42%; 43%; 44%; 45%; 46%; 47%; 48%; 49%; 50%; 51%; 52%; 53%; 54%; 55%; 56%; 57%; 58%; 59%; 60%; 61%; 62%; 63%; 64%; 65%; 66%; 67%; 68%; 69%; 70%; 71%; 72%; 73%; 74%; 75%; 76%; 77%; 78%; 79%; 80%; 81%; 82%; 83%; 84%; 85%; 86%; 87%; 88%; 89%; 90%; 91%; 92%; 93%; 94%; 95%; 96%; 97%; 98%; 99%; 100%; 

[Node 0] Acceptance rate for all moves:
Move set Insert two operators: 0.0281889
  Move  Insert Delta_down_0: 0.0281921
  Move  Insert Delta_down_1: 0.0281883
  Move  Insert Delta_down_2: 0.0281883
  Move  Insert Delta_up_0: 0.0281881
  Move  Insert Delta_up_1: 0.028191
  Move  Insert Delta_up_2: 0.0281859
Move set Remove two operators: 0.0281877
  Move  Remove Delta_down_0: 0.0281914
  Move  Remove Delta_down_1: 0.0281894
  Move  Remove Delta_down_2: 0.0281842
  Move  Remove Delta_up_0: 0.0281803
  Move  Remove Delta_up_1: 0.0281942
  Move  Remove Delta_up_2: 0.0281869
Move set Insert four operators: 0.00137826
  Move  Insert Delta_down_0_down_0: 0.00148931
  Move  Insert Delta_down_0_down_1: 0.00138508
  Move  Insert Delta_down_0_down_2: 0.00137581
  Move  Insert Delta_down_0_up_0: 0.00130785
  Move  Insert Delta_down_0_up_1: 0.00134814
  Move  Insert Delta_down_0_up_2: 0.00135439
  Move  Insert Delta_down_1_down_0: 0.0013813
  Move  Insert Delta_down_1_down_1: 0.00149206
  Move  Insert Delta_down_1_down_2: 0.00138505
  Move  Insert Delta_down_1_up_0: 0.00134737
  Move  Insert Delta_down_1_up_1: 0.00131626
  Move  Insert Delta_down_1_up_2: 0.00134883
  Move  Insert Delta_down_2_down_0: 0.00138141
  Move  Insert Delta_down_2_down_1: 0.00138762
  Move  Insert Delta_down_2_down_2: 0.00148268
  Move  Insert Delta_down_2_up_0: 0.00134739
  Move  Insert Delta_down_2_up_1: 0.0013488
  Move  Insert Delta_down_2_up_2: 0.00131249
  Move  Insert Delta_up_0_down_0: 0.0013188
  Move  Insert Delta_up_0_down_1: 0.00135419
  Move  Insert Delta_up_0_down_2: 0.00135273
  Move  Insert Delta_up_0_up_0: 0.00148247
  Move  Insert Delta_up_0_up_1: 0.0013775
  Move  Insert Delta_up_0_up_2: 0.00138075
  Move  Insert Delta_up_1_down_0: 0.0013515
  Move  Insert Delta_up_1_down_1: 0.00131578
  Move  Insert Delta_up_1_down_2: 0.00134571
  Move  Insert Delta_up_1_up_0: 0.00137977
  Move  Insert Delta_up_1_up_1: 0.00149033
  Move  Insert Delta_up_1_up_2: 0.00139023
  Move  Insert Delta_up_2_down_0: 0.00135762
  Move  Insert Delta_up_2_down_1: 0.00135385
  Move  Insert Delta_up_2_down_2: 0.00131696
  Move  Insert Delta_up_2_up_0: 0.00138325
  Move  Insert Delta_up_2_up_1: 0.00138339
  Move  Insert Delta_up_2_up_2: 0.0014906
Move set Remove four operators: 0.00137863
  Move  Remove Delta_down_0_down_0: 0.00149003
  Move  Remove Delta_down_0_down_1: 0.0013902
  Move  Remove Delta_down_0_down_2: 0.00138483
  Move  Remove Delta_down_0_up_0: 0.00131933
  Move  Remove Delta_down_0_up_1: 0.00134304
  Move  Remove Delta_down_0_up_2: 0.00134558
  Move  Remove Delta_down_1_down_0: 0.00138385
  Move  Remove Delta_down_1_down_1: 0.00148011
  Move  Remove Delta_down_1_down_2: 0.0013829
  Move  Remove Delta_down_1_up_0: 0.00134701
  Move  Remove Delta_down_1_up_1: 0.00131491
  Move  Remove Delta_down_1_up_2: 0.00135406
  Move  Remove Delta_down_2_down_0: 0.00138028
  Move  Remove Delta_down_2_down_1: 0.00138157
  Move  Remove Delta_down_2_down_2: 0.0014872
  Move  Remove Delta_down_2_up_0: 0.00135145
  Move  Remove Delta_down_2_up_1: 0.00134894
  Move  Remove Delta_down_2_up_2: 0.00131903
  Move  Remove Delta_up_0_down_0: 0.00131586
  Move  Remove Delta_up_0_down_1: 0.00135531
  Move  Remove Delta_up_0_down_2: 0.00135207
  Move  Remove Delta_up_0_up_0: 0.00149224
  Move  Remove Delta_up_0_up_1: 0.00138292
  Move  Remove Delta_up_0_up_2: 0.00138319
  Move  Remove Delta_up_1_down_0: 0.00135076
  Move  Remove Delta_up_1_down_1: 0.00131833
  Move  Remove Delta_up_1_down_2: 0.00134866
  Move  Remove Delta_up_1_up_0: 0.00138289
  Move  Remove Delta_up_1_up_1: 0.00148829
  Move  Remove Delta_up_1_up_2: 0.00138081
  Move  Remove Delta_up_2_down_0: 0.001355
  Move  Remove Delta_up_2_down_1: 0.00135084
  Move  Remove Delta_up_2_down_2: 0.00131885
  Move  Remove Delta_up_2_up_0: 0.00138082
  Move  Remove Delta_up_2_up_1: 0.00138098
  Move  Remove Delta_up_2_up_2: 0.00148851
Move  Shift one operator: 0.0554944
[Node 0] Simulation lasted: 216 seconds
[Node 0] Number of measures: 166666
Total number of measures: 59999760
Average sign: 0.999602
solver took   233.2819 seconds
Total charge convergency of impurity problem : 0.009902
Density matrix:
up_2
[[ 0.16902849]]
up_0
[[ 0.16799553]]
up_1
[[ 0.16733274]]
down_2
[[ 0.16778408]]
down_1
[[ 0.16700433]]
down_0
[[ 0.1667083]]


*** Post-processing the solver output ***
Total charge of all correlated shells : 1.005853
DC for shell 0 and block up = 2.625288
DC for shell 0 and block down = 2.625288
DC energy for shell 0 = 0.0127055324062
Dichotomy adjustment of Chemical Potential to obtain Total Density = 0.995983 +/- 0.000100
    Chemical Potential = -0.650020  
    Total Density = 0.847724
    -0.150020 < Chemical Potential < -0.650020
    1.004564 < Total Density < 0.847724
    -0.150020 < Chemical Potential < -0.177377
    1.004564 < Total Density < 0.995116
    -0.150020 < Chemical Potential < -0.174867
    1.004564 < Total Density < 0.995979
    Chemical Potential found in 3 iterations : 
    Total Density = 0.995979;Chemical Potential = -0.174867
Kinetic energy contribution dmft part: 0.463929025427
energy contribution of correlated shell 0 = -0.00456822709594
Trace of Density Matrix: {'down': (-0.0020106780823465516+5.0517888457068931e-18j), 'up': (-0.0020106780823465516+5.0517888457068931e-18j)}
band energy correction: 0.864238675789
Writing direct observables to text file
################################################################################
Doing ITERATION: 18 / 18

*** Correlated Shell type #  0 : Total charge of impurity problem = 0.995952
Density matrix:
up_2
[[ 0.16599247]]
up_0
[[ 0.16599202]]
up_1
[[ 0.16599148]]
down_2
[[ 0.16599247]]
down_1
[[ 0.16599148]]
down_0
[[ 0.16599202]]


Solving the impurity problem for shell 0 ...
The local Hamiltonian of the problem:
-1.87107*C^+(down_0,0)C(down_0,0) + -1.87107*C^+(down_1,0)C(down_1,0) + -1.87107*C^+(down_2,0)C(down_2,0) + -1.87107*C^+(up_0,0)C(up_0,0) + -1.87107*C^+(up_1,0)C(up_1,0) + -1.87107*C^+(up_2,0)C(up_2,0) + 4.55*C^+(down_0,0)C^+(down_1,0)C(down_1,0)C(down_0,0) + 4.55*C^+(down_0,0)C^+(down_2,0)C(down_2,0)C(down_0,0) + 0.65*C^+(down_0,0)C^+(up_0,0)C(up_2,0)C(down_2,0) + 0.65*C^+(down_0,0)C^+(up_0,0)C(up_1,0)C(down_1,0) + 6.5*C^+(down_0,0)C^+(up_0,0)C(up_0,0)C(down_0,0) + 5.2*C^+(down_0,0)C^+(up_1,0)C(up_1,0)C(down_0,0) + 0.65*C^+(down_0,0)C^+(up_1,0)C(up_0,0)C(down_1,0) + 5.2*C^+(down_0,0)C^+(up_2,0)C(up_2,0)C(down_0,0) + 0.65*C^+(down_0,0)C^+(up_2,0)C(up_0,0)C(down_2,0) + 4.55*C^+(down_1,0)C^+(down_2,0)C(down_2,0)C(down_1,0) + 0.65*C^+(down_1,0)C^+(up_0,0)C(up_1,0)C(down_0,0) + 5.2*C^+(down_1,0)C^+(up_0,0)C(up_0,0)C(down_1,0) + 0.65*C^+(down_1,0)C^+(up_1,0)C(up_2,0)C(down_2,0) + 6.5*C^+(down_1,0)C^+(up_1,0)C(up_1,0)C(down_1,0) + 0.65*C^+(down_1,0)C^+(up_1,0)C(up_0,0)C(down_0,0) + 5.2*C^+(down_1,0)C^+(up_2,0)C(up_2,0)C(down_1,0) + 0.65*C^+(down_1,0)C^+(up_2,0)C(up_1,0)C(down_2,0) + 0.65*C^+(down_2,0)C^+(up_0,0)C(up_2,0)C(down_0,0) + 5.2*C^+(down_2,0)C^+(up_0,0)C(up_0,0)C(down_2,0) + 0.65*C^+(down_2,0)C^+(up_1,0)C(up_2,0)C(down_1,0) + 5.2*C^+(down_2,0)C^+(up_1,0)C(up_1,0)C(down_2,0) + 6.5*C^+(down_2,0)C^+(up_2,0)C(up_2,0)C(down_2,0) + 0.65*C^+(down_2,0)C^+(up_2,0)C(up_1,0)C(down_1,0) + 0.65*C^+(down_2,0)C^+(up_2,0)C(up_0,0)C(down_0,0) + 4.55*C^+(up_0,0)C^+(up_1,0)C(up_1,0)C(up_0,0) + 4.55*C^+(up_0,0)C^+(up_2,0)C(up_2,0)C(up_0,0) + 4.55*C^+(up_1,0)C^+(up_2,0)C(up_2,0)C(up_1,0)
Using autopartition algorithm to partition the local Hilbert space
Found 44 subspaces.

Warming up ...
1%; 2%; 3%; 4%; 5%; 6%; 7%; 8%; 9%; 10%; 11%; 12%; 13%; 14%; 15%; 16%; 17%; 18%; 19%; 20%; 21%; 22%; 23%; 24%; 25%; 26%; 27%; 28%; 29%; 30%; 31%; 32%; 33%; 34%; 35%; 36%; 37%; 38%; 39%; 40%; 41%; 42%; 43%; 44%; 45%; 46%; 47%; 48%; 49%; 50%; 51%; 52%; 53%; 54%; 55%; 56%; 57%; 58%; 59%; 60%; 61%; 62%; 63%; 64%; 65%; 66%; 67%; 68%; 69%; 70%; 71%; 72%; 73%; 74%; 75%; 76%; 77%; 78%; 79%; 80%; 81%; 82%; 83%; 84%; 85%; 86%; 87%; 88%; 89%; 90%; 91%; 92%; 93%; 94%; 95%; 96%; 97%; 98%; 99%; 100%; 
Accumulating ...
1%; 2%; 3%; 4%; 5%; 6%; 7%; 8%; 9%; 10%; 11%; 12%; 13%; 14%; 15%; 16%; 17%; 18%; 19%; 20%; 21%; 22%; 23%; 24%; 25%; 26%; 27%; 28%; 29%; 30%; 31%; 32%; 33%; 34%; 35%; 36%; 37%; 38%; 39%; 40%; 41%; 42%; 43%; 44%; 45%; 46%; 47%; 48%; 49%; 50%; 51%; 52%; 53%; 54%; 55%; 56%; 57%; 58%; 59%; 60%; 61%; 62%; 63%; 64%; 65%; 66%; 67%; 68%; 69%; 70%; 71%; 72%; 73%; 74%; 75%; 76%; 77%; 78%; 79%; 80%; 81%; 82%; 83%; 84%; 85%; 86%; 87%; mc_generic stops because of a signal

 
Batch Job Summary Report for Job "csc-srvo3" (6725389) on daint
-----------------------------------------------------------------------------------------------------
             Submit            Eligible               Start                 End    Elapsed  Timelimit 
------------------- ------------------- ------------------- ------------------- ---------- ---------- 
2018-04-05T11:44:56 2018-04-05T11:44:56 2018-04-05T11:47:38 2018-04-05T14:21:46   02:34:08   04:00:00 
-----------------------------------------------------------------------------------------------------
Username    Account     Partition   NNodes   Energy
----------  ----------  ----------  ------  --------------
ahampel     mr6         normal           5   11.59M joules
----------------------------------------------------------
Scratch File System        Files       Quota
--------------------  ----------  ----------
/scratch/snx3000               2     1000000
 
