   20   20    1    1
  0.1133190E+02  0.5440291E-09  0.5419717E-09  0.7686592E-09  0.5000000E-15
   1.0000000000000000E-004
  CAR 
 PrNiO3                                  
    180    144    108

  0.8333333E-01  0.8333333E-01  0.1250000E+00  0.6944444E-02
      1        -59.249919   1.000000
      2        -59.247604   1.000000
      3        -59.235146   1.000000
      4        -59.232304   1.000000
      5        -59.211413   1.000000
      6        -59.211145   1.000000
      7        -59.033518   1.000000
      8        -59.031522   1.000000
      9        -59.023833   1.000000
     10        -59.020691   1.000000
     11        -58.999463   1.000000
     12        -58.998674   1.000000
     13        -30.010318   1.000000
     14        -29.973134   1.000000
     15        -29.928763   1.000000
     16        -29.899176   1.000000
     17        -14.542897   1.000000
     18        -14.055812   1.000000
     19        -13.867026   1.000000
     20        -13.821039   1.000000
     21        -13.505722   1.000000
     22        -13.400450   1.000000
     23        -13.147944   1.000000
     24        -12.980240   1.000000
     25        -12.882408   1.000000
     26        -12.839166   1.000000
     27        -12.650188   1.000000
     28        -12.480786   1.000000
     29        -11.890386   1.000000
     30        -11.836816   1.000000
     31        -11.828604   1.000000
     32        -11.615102   1.000000
     33        -11.551977   1.000000
     34        -11.423570   1.000000
     35        -11.307380   1.000000
     36        -11.120118   1.000000
     37        -10.959838   1.000000
     38        -10.610468   1.000000
     39        -10.493223   1.000000
     40        -10.386760   1.000000
     41         -1.918800   1.000000
     42         -1.378647   1.000000
     43         -0.860391   1.000000
     44         -0.566825   1.000000
     45         -0.255797   1.000000
     46         -0.249776   1.000000
     47         -0.213634   1.000000
     48          0.078088   1.000000
     49          0.110627   1.000000
     50          0.213606   1.000000
     51          0.335913   1.000000
     52          0.432006   1.000000
     53          0.476775   1.000000
     54          0.493758   1.000000
     55          0.623034   1.000000
     56          0.682545   1.000000
     57          0.853412   1.000000
     58          0.946433   1.000000
     59          1.268137   1.000000
     60          1.377523   1.000000
     61          1.459335   1.000000
     62          2.004638   1.000000
     63          2.197141   1.000000
     64          2.296241   1.000000
     65          2.425331   1.000000
     66          2.603651   1.000000
     67          2.691309   1.000000
     68          2.723063   1.000000
     69          2.810090   1.000000
     70          2.821941   1.000000
     71          2.892374   1.000000
     72          3.014731   1.000000
     73          3.193186   1.000000
     74          3.256455   1.000000
     75          3.338265   1.000000
     76          3.405041   1.000000
     77          3.474646   1.000000
     78          3.547530   1.000000
     79          3.600568   1.000000
     80          3.740887   1.000000
     81          3.824151   1.000000
     82          3.991259   1.000000
     83          4.072415   1.000000
     84          4.194161   1.000000
     85          4.216620   1.000000
     86          4.433840   1.000000
     87          4.453542   1.000000
     88          4.525314   1.000000
     89          4.691067   1.000000
     90          4.755258   1.000000
     91          4.813060   1.098526
     92          5.030299   0.080904
     93          5.852667   0.000000
     94          7.083129   0.000000
     95          7.200887   0.000000
     96          7.251016   0.000000
     97          8.651676   0.000000
     98          9.041673   0.000000
     99          9.711998   0.000000
    100          9.747196   0.000000
    101          9.965803   0.000000
    102         10.145305   0.000000
    103         10.540398   0.000000
    104         10.652514   0.000000
    105         10.827283   0.000000
    106         10.883085   0.000000
    107         10.926942   0.000000
    108         10.982847   0.000000

  0.2500000E+00  0.8333333E-01  0.1250000E+00  0.6944444E-02
      1        -59.249758   1.000000
      2        -59.247471   1.000000
      3        -59.235159   1.000000
      4        -59.232284   1.000000
      5        -59.211351   1.000000
      6        -59.211222   1.000000
      7        -59.033501   1.000000
      8        -59.031509   1.000000
      9        -59.023638   1.000000
     10        -59.020600   1.000000
     11        -58.999414   1.000000
     12        -58.998739   1.000000
     13        -29.999236   1.000000
     14        -29.963878   1.000000
     15        -29.938332   1.000000
     16        -29.908546   1.000000
     17        -14.424689   1.000000
     18        -14.223875   1.000000
     19        -14.066146   1.000000
     20        -13.771221   1.000000
     21        -13.573661   1.000000
     22        -13.420156   1.000000
     23        -13.332370   1.000000
     24        -13.164419   1.000000
     25        -12.807436   1.000000
     26        -12.659456   1.000000
     27        -12.624518   1.000000
     28        -12.459803   1.000000
     29        -11.878096   1.000000
     30        -11.860674   1.000000
     31        -11.792229   1.000000
     32        -11.719617   1.000000
     33        -11.265745   1.000000
     34        -11.170553   1.000000
     35        -11.099599   1.000000
     36        -11.082051   1.000000
     37        -10.959615   1.000000
     38        -10.606943   1.000000
     39        -10.562953   1.000000
     40        -10.430308   1.000000
     41         -1.732470   1.000000
     42         -1.254132   1.000000
     43         -0.989091   1.000000
     44         -0.326579   1.000000
     45         -0.264616   1.000000
     46         -0.226715   1.000000
     47         -0.166696   1.000000
     48         -0.104566   1.000000
     49          0.092664   1.000000
     50          0.145216   1.000000
     51          0.254479   1.000000
     52          0.339182   1.000000
     53          0.373622   1.000000
     54          0.423536   1.000000
     55          0.464752   1.000000
     56          0.616214   1.000000
     57          0.668462   1.000000
     58          0.880761   1.000000
     59          1.122531   1.000000
     60          1.538812   1.000000
     61          1.599163   1.000000
     62          1.801883   1.000000
     63          1.913913   1.000000
     64          2.115787   1.000000
     65          2.179709   1.000000
     66          2.471888   1.000000
     67          2.508853   1.000000
     68          2.620874   1.000000
     69          2.653218   1.000000
     70          2.757460   1.000000
     71          2.858873   1.000000
     72          2.961247   1.000000
     73          3.183809   1.000000
     74          3.286745   1.000000
     75          3.338476   1.000000
     76          3.475988   1.000000
     77          3.547949   1.000000
     78          3.660659   1.000000
     79          3.713218   1.000000
     80          3.804613   1.000000
     81          4.025232   1.000000
     82          4.062042   1.000000
     83          4.144122   1.000000
     84          4.190614   1.000000
     85          4.309328   1.000000
     86          4.428778   1.000000
     87          4.478487   1.000000
     88          4.493483   1.000000
     89          4.757863   1.000000
     90          4.873368   1.000000
     91          4.977603   0.605283
     92          5.030890   0.000000
     93          6.106111   0.000000
     94          6.713936   0.000000
     95          6.851570   0.000000
     96          7.118642   0.000000
     97          8.911860   0.000000
     98          9.253151   0.000000
     99          9.971646   0.000000
    100          9.994241   0.000000
    101         10.173338   0.000000
    102         10.403080   0.000000
    103         10.576970   0.000000
    104         10.703517   0.000000
    105         10.907557   0.000000
    106         10.991112   0.000000
    107         11.051312   0.000000
    108         11.328620   0.000000

  0.4166667E+00  0.8333333E-01  0.1250000E+00  0.6944444E-02
      1        -59.249679   1.000000
      2        -59.247399   1.000000
      3        -59.235173   1.000000
      4        -59.232287   1.000000
      5        -59.211184   1.000000
      6        -59.211142   1.000000
      7        -59.033525   1.000000
      8        -59.031542   1.000000
      9        -59.023579   1.000000
     10        -59.020516   1.000000
     11        -58.999296   1.000000
     12        -58.998614   1.000000
     13        -29.980493   1.000000
     14        -29.960715   1.000000
     15        -29.942566   1.000000
     16        -29.924826   1.000000
     17        -14.328213   1.000000
     18        -14.260087   1.000000
     19        -14.175581   1.000000
     20        -13.883723   1.000000
     21        -13.702051   1.000000
     22        -13.570383   1.000000
     23        -13.322301   1.000000
     24        -13.155473   1.000000
     25        -12.809202   1.000000
     26        -12.693002   1.000000
     27        -12.548622   1.000000
     28        -12.477447   1.000000
     29        -11.886195   1.000000
     30        -11.840036   1.000000
     31        -11.696623   1.000000
     32        -11.585916   1.000000
     33        -11.248537   1.000000
     34        -11.118225   1.000000
     35        -10.888087   1.000000
     36        -10.885528   1.000000
     37        -10.855912   1.000000
     38        -10.689546   1.000000
     39        -10.575086   1.000000
     40        -10.508205   1.000000
     41         -1.461375   1.000000
     42         -1.207708   1.000000
     43         -1.044738   1.000000
     44         -0.708220   1.000000
     45         -0.156834   1.000000
     46         -0.113133   1.000000
     47         -0.079298   1.000000
     48         -0.016543   1.000000
     49          0.042908   1.000000
     50          0.081020   1.000000
     51          0.174689   1.000000
     52          0.233110   1.000000
     53          0.276425   1.000000
     54          0.361598   1.000000
     55          0.429870   1.000000
     56          0.690887   1.000000
     57          0.736879   1.000000
     58          0.848086   1.000000
     59          1.014886   1.000000
     60          1.219651   1.000000
     61          1.355355   1.000000
     62          1.509901   1.000000
     63          1.745915   1.000000
     64          2.011653   1.000000
     65          2.172023   1.000000
     66          2.320900   1.000000
     67          2.437692   1.000000
     68          2.558990   1.000000
     69          2.692975   1.000000
     70          2.713466   1.000000
     71          2.827408   1.000000
     72          2.977195   1.000000
     73          3.074393   1.000000
     74          3.173377   1.000000
     75          3.300892   1.000000
     76          3.395353   1.000000
     77          3.723967   1.000000
     78          3.893585   1.000000
     79          3.902052   1.000000
     80          3.993829   1.000000
     81          4.021035   1.000000
     82          4.066428   1.000000
     83          4.146143   1.000000
     84          4.242628   1.000000
     85          4.267414   1.000000
     86          4.298213   1.000000
     87          4.427282   1.000000
     88          4.445004   1.000000
     89          4.802293   1.003795
     90          4.901824   0.912728
     91          5.423443  -0.019464
     92          5.596590   0.000000
     93          6.121708   0.000000
     94          6.272057   0.000000
     95          6.494109   0.000000
     96          6.861964   0.000000
     97          9.379432   0.000000
     98          9.662991   0.000000
     99          9.916837   0.000000
    100         10.079325   0.000000
    101         10.408510   0.000000
    102         10.480187   0.000000
    103         10.672348   0.000000
    104         10.850297   0.000000
    105         10.967508   0.000000
    106         11.087295   0.000000
    107         11.143119   0.000000
    108         11.277945   0.000000

 -0.4166667E+00  0.8333333E-01  0.1250000E+00  0.6944444E-02
      1        -59.249694   1.000000
      2        -59.247420   1.000000
      3        -59.235195   1.000000
      4        -59.232261   1.000000
      5        -59.211181   1.000000
      6        -59.211113   1.000000
      7        -59.033513   1.000000
      8        -59.031542   1.000000
      9        -59.023618   1.000000
     10        -59.020513   1.000000
     11        -58.999299   1.000000
     12        -58.998586   1.000000
     13        -29.980488   1.000000
     14        -29.960716   1.000000
     15        -29.942573   1.000000
     16        -29.924823   1.000000
     17        -14.327279   1.000000
     18        -14.260537   1.000000
     19        -14.173170   1.000000
     20        -13.892213   1.000000
     21        -13.691271   1.000000
     22        -13.576991   1.000000
     23        -13.319928   1.000000
     24        -13.158972   1.000000
     25        -12.801255   1.000000
     26        -12.697678   1.000000
     27        -12.550804   1.000000
     28        -12.478328   1.000000
     29        -11.884293   1.000000
     30        -11.836126   1.000000
     31        -11.687658   1.000000
     32        -11.599920   1.000000
     33        -11.247414   1.000000
     34        -11.115949   1.000000
     35        -10.898288   1.000000
     36        -10.890323   1.000000
     37        -10.844430   1.000000
     38        -10.679111   1.000000
     39        -10.579890   1.000000
     40        -10.512270   1.000000
     41         -1.462556   1.000000
     42         -1.213336   1.000000
     43         -1.027938   1.000000
     44         -0.722640   1.000000
     45         -0.154339   1.000000
     46         -0.089448   1.000000
     47         -0.085506   1.000000
     48         -0.046795   1.000000
     49          0.020645   1.000000
     50          0.104441   1.000000
     51          0.142684   1.000000
     52          0.247800   1.000000
     53          0.334973   1.000000
     54          0.374464   1.000000
     55          0.418344   1.000000
     56          0.682516   1.000000
     57          0.764239   1.000000
     58          0.778361   1.000000
     59          1.060834   1.000000
     60          1.211709   1.000000
     61          1.322001   1.000000
     62          1.514527   1.000000
     63          1.774420   1.000000
     64          1.989459   1.000000
     65          2.171816   1.000000
     66          2.322947   1.000000
     67          2.437678   1.000000
     68          2.555760   1.000000
     69          2.705820   1.000000
     70          2.709532   1.000000
     71          2.831016   1.000000
     72          2.964926   1.000000
     73          3.073044   1.000000
     74          3.186392   1.000000
     75          3.311478   1.000000
     76          3.381884   1.000000
     77          3.723793   1.000000
     78          3.873765   1.000000
     79          3.906962   1.000000
     80          3.993258   1.000000
     81          4.014722   1.000000
     82          4.077515   1.000000
     83          4.151422   1.000000
     84          4.249816   1.000000
     85          4.266730   1.000000
     86          4.296249   1.000000
     87          4.426275   1.000000
     88          4.444495   1.000000
     89          4.804495   0.959468
     90          4.899870   0.795779
     91          5.422119  -0.090110
     92          5.598461   0.000000
     93          6.120713   0.000000
     94          6.273846   0.000000
     95          6.498490   0.000000
     96          6.858123   0.000000
     97          9.375070   0.000000
     98          9.666360   0.000000
     99          9.921590   0.000000
    100         10.095936   0.000000
    101         10.389577   0.000000
    102         10.466374   0.000000
    103         10.685949   0.000000
    104         10.838103   0.000000
    105         10.972878   0.000000
    106         11.111631   0.000000
    107         11.145812   0.000000
    108         11.245235   0.000000

 -0.2500000E+00  0.8333333E-01  0.1250000E+00  0.6944444E-02
      1        -59.249675   1.000000
      2        -59.247406   1.000000
      3        -59.235280   1.000000
      4        -59.232338   1.000000
      5        -59.211351   1.000000
      6        -59.211178   1.000000
      7        -59.033592   1.000000
      8        -59.031609   1.000000
      9        -59.023618   1.000000
     10        -59.020507   1.000000
     11        -58.999424   1.000000
     12        -58.998673   1.000000
     13        -29.999232   1.000000
     14        -29.963876   1.000000
     15        -29.938339   1.000000
     16        -29.908545   1.000000
     17        -14.423758   1.000000
     18        -14.221493   1.000000
     19        -14.069077   1.000000
     20        -13.768518   1.000000
     21        -13.584095   1.000000
     22        -13.409155   1.000000
     23        -13.334731   1.000000
     24        -13.168411   1.000000
     25        -12.819200   1.000000
     26        -12.649817   1.000000
     27        -12.618124   1.000000
     28        -12.457902   1.000000
     29        -11.879112   1.000000
     30        -11.857171   1.000000
     31        -11.796754   1.000000
     32        -11.723390   1.000000
     33        -11.265159   1.000000
     34        -11.165884   1.000000
     35        -11.103352   1.000000
     36        -11.081213   1.000000
     37        -10.957749   1.000000
     38        -10.613260   1.000000
     39        -10.545208   1.000000
     40        -10.443841   1.000000
     41         -1.734892   1.000000
     42         -1.246220   1.000000
     43         -0.995518   1.000000
     44         -0.319538   1.000000
     45         -0.270613   1.000000
     46         -0.227337   1.000000
     47         -0.161017   1.000000
     48         -0.110091   1.000000
     49          0.073940   1.000000
     50          0.142515   1.000000
     51          0.262761   1.000000
     52          0.335283   1.000000
     53          0.387866   1.000000
     54          0.398902   1.000000
     55          0.516997   1.000000
     56          0.616470   1.000000
     57          0.666155   1.000000
     58          0.901025   1.000000
     59          1.075235   1.000000
     60          1.543115   1.000000
     61          1.611643   1.000000
     62          1.799408   1.000000
     63          1.888128   1.000000
     64          2.108991   1.000000
     65          2.201596   1.000000
     66          2.484403   1.000000
     67          2.500292   1.000000
     68          2.619436   1.000000
     69          2.664367   1.000000
     70          2.747338   1.000000
     71          2.862614   1.000000
     72          2.952994   1.000000
     73          3.166762   1.000000
     74          3.297652   1.000000
     75          3.350974   1.000000
     76          3.463239   1.000000
     77          3.552751   1.000000
     78          3.671337   1.000000
     79          3.703163   1.000000
     80          3.803889   1.000000
     81          3.997880   1.000000
     82          4.066222   1.000000
     83          4.154905   1.000000
     84          4.208242   1.000000
     85          4.311368   1.000000
     86          4.421929   1.000000
     87          4.476590   1.000000
     88          4.495902   1.000000
     89          4.754834   1.017392
     90          4.877496   0.926761
     91          4.978048   0.568691
     92          5.030167   0.090990
     93          6.110313   0.000000
     94          6.718537   0.000000
     95          6.852585   0.000000
     96          7.112399   0.000000
     97          8.913643   0.000000
     98          9.254483   0.000000
     99          9.970081   0.000000
    100          9.995751   0.000000
    101         10.175236   0.000000
    102         10.400543   0.000000
    103         10.582722   0.000000
    104         10.713037   0.000000
    105         10.901635   0.000000
    106         10.991052   0.000000
    107         11.043884   0.000000
    108         11.291195   0.000000

 -0.8333333E-01  0.8333333E-01  0.1250000E+00  0.6944444E-02
      1        -59.249700   1.000000
      2        -59.247434   1.000000
      3        -59.235357   1.000000
      4        -59.232480   1.000000
      5        -59.211393   1.000000
      6        -59.211178   1.000000
      7        -59.033739   1.000000
      8        -59.031694   1.000000
      9        -59.023661   1.000000
     10        -59.020505   1.000000
     11        -58.999457   1.000000
     12        -58.998641   1.000000
     13        -30.010317   1.000000
     14        -29.973133   1.000000
     15        -29.928765   1.000000
     16        -29.899176   1.000000
     17        -14.542603   1.000000
     18        -14.053180   1.000000
     19        -13.879127   1.000000
     20        -13.810103   1.000000
     21        -13.508144   1.000000
     22        -13.400138   1.000000
     23        -13.144642   1.000000
     24        -12.992468   1.000000
     25        -12.893213   1.000000
     26        -12.825392   1.000000
     27        -12.644464   1.000000
     28        -12.474330   1.000000
     29        -11.899327   1.000000
     30        -11.840271   1.000000
     31        -11.826552   1.000000
     32        -11.614489   1.000000
     33        -11.549588   1.000000
     34        -11.424355   1.000000
     35        -11.304676   1.000000
     36        -11.120831   1.000000
     37        -10.958071   1.000000
     38        -10.613234   1.000000
     39        -10.483556   1.000000
     40        -10.395274   1.000000
     41         -1.919792   1.000000
     42         -1.376262   1.000000
     43         -0.862131   1.000000
     44         -0.566801   1.000000
     45         -0.253536   1.000000
     46         -0.251797   1.000000
     47         -0.212921   1.000000
     48          0.074755   1.000000
     49          0.105655   1.000000
     50          0.221829   1.000000
     51          0.328821   1.000000
     52          0.432977   1.000000
     53          0.483650   1.000000
     54          0.498023   1.000000
     55          0.621543   1.000000
     56          0.689240   1.000000
     57          0.845824   1.000000
     58          0.959686   1.000000
     59          1.224330   1.000000
     60          1.399851   1.000000
     61          1.467379   1.000000
     62          2.012579   1.000000
     63          2.186492   1.000000
     64          2.292247   1.000000
     65          2.432922   1.000000
     66          2.600747   1.000000
     67          2.697044   1.000000
     68          2.730297   1.000000
     69          2.802507   1.000000
     70          2.817617   1.000000
     71          2.887966   1.000000
     72          3.005681   1.000000
     73          3.194295   1.000000
     74          3.257569   1.000000
     75          3.349171   1.000000
     76          3.402015   1.000000
     77          3.469692   1.000000
     78          3.552872   1.000000
     79          3.595233   1.000000
     80          3.750047   1.000000
     81          3.822213   1.000000
     82          3.991263   1.000000
     83          4.059567   1.000000
     84          4.196660   1.000000
     85          4.227771   1.000000
     86          4.433715   1.000000
     87          4.445184   1.000000
     88          4.530835   1.000000
     89          4.692357   1.000000
     90          4.750646   1.000000
     91          4.815762   1.024158
     92          5.030640   0.237009
     93          5.855762   0.000000
     94          7.086436   0.000000
     95          7.200970   0.000000
     96          7.246730   0.000000
     97          8.653603   0.000000
     98          9.041505   0.000000
     99          9.709016   0.000000
    100          9.750748   0.000000
    101          9.965905   0.000000
    102         10.144839   0.000000
    103         10.551453   0.000000
    104         10.642881   0.000000
    105         10.821216   0.000000
    106         10.899396   0.000000
    107         10.912243   0.000000
    108         10.977778   0.000000

  0.8333333E-01  0.2500000E+00  0.1250000E+00  0.6944444E-02
      1        -59.249738   1.000000
      2        -59.247446   1.000000
      3        -59.235200   1.000000
      4        -59.232309   1.000000
      5        -59.211197   1.000000
      6        -59.211141   1.000000
      7        -59.033538   1.000000
      8        -59.031550   1.000000
      9        -59.023620   1.000000
     10        -59.020572   1.000000
     11        -58.999293   1.000000
     12        -58.998618   1.000000
     13        -29.998979   1.000000
     14        -29.963002   1.000000
     15        -29.939221   1.000000
     16        -29.908824   1.000000
     17        -14.406969   1.000000
     18        -14.149431   1.000000
     19        -14.024092   1.000000
     20        -13.717887   1.000000
     21        -13.593960   1.000000
     22        -13.364317   1.000000
     23        -13.221209   1.000000
     24        -13.200273   1.000000
     25        -13.060256   1.000000
     26        -12.958556   1.000000
     27        -12.749119   1.000000
     28        -12.491844   1.000000
     29        -11.811287   1.000000
     30        -11.707597   1.000000
     31        -11.611871   1.000000
     32        -11.428198   1.000000
     33        -11.316334   1.000000
     34        -11.258908   1.000000
     35        -11.186766   1.000000
     36        -11.087069   1.000000
     37        -10.929142   1.000000
     38        -10.683003   1.000000
     39        -10.578489   1.000000
     40        -10.446339   1.000000
     41         -1.677082   1.000000
     42         -1.182277   1.000000
     43         -0.938884   1.000000
     44         -0.301419   1.000000
     45         -0.239329   1.000000
     46         -0.187441   1.000000
     47         -0.125924   1.000000
     48         -0.018893   1.000000
     49          0.083887   1.000000
     50          0.132685   1.000000
     51          0.204803   1.000000
     52          0.243927   1.000000
     53          0.358165   1.000000
     54          0.409888   1.000000
     55          0.501301   1.000000
     56          0.604602   1.000000
     57          0.691307   1.000000
     58          0.880137   1.000000
     59          1.155480   1.000000
     60          1.546288   1.000000
     61          1.724501   1.000000
     62          1.912741   1.000000
     63          1.991498   1.000000
     64          2.060719   1.000000
     65          2.242717   1.000000
     66          2.399687   1.000000
     67          2.418512   1.000000
     68          2.559757   1.000000
     69          2.621974   1.000000
     70          2.683667   1.000000
     71          2.764603   1.000000
     72          2.978251   1.000000
     73          3.055306   1.000000
     74          3.150858   1.000000
     75          3.362248   1.000000
     76          3.402239   1.000000
     77          3.531953   1.000000
     78          3.706717   1.000000
     79          3.733817   1.000000
     80          3.885279   1.000000
     81          4.080328   1.000000
     82          4.100201   1.000000
     83          4.164454   1.000000
     84          4.186536   1.000000
     85          4.310292   1.000000
     86          4.358303   1.000000
     87          4.458356   1.000000
     88          4.496241   1.000000
     89          4.733542   1.000000
     90          4.817573   1.000000
     91          4.949838   0.727430
     92          4.982232   0.216143
     93          6.127322   0.000000
     94          6.674554   0.000000
     95          6.796731   0.000000
     96          7.094478   0.000000
     97          9.014548   0.000000
     98          9.151691   0.000000
     99         10.018872   0.000000
    100         10.096905   0.000000
    101         10.175314   0.000000
    102         10.451647   0.000000
    103         10.582784   0.000000
    104         10.829597   0.000000
    105         10.967909   0.000000
    106         11.001625   0.000000
    107         11.111676   0.000000
    108         11.184170   0.000000

  0.2500000E+00  0.2500000E+00  0.1250000E+00  0.6944444E-02
      1        -59.249658   1.000000
      2        -59.247353   1.000000
      3        -59.235048   1.000000
      4        -59.232223   1.000000
      5        -59.211095   1.000000
      6        -59.210984   1.000000
      7        -59.033438   1.000000
      8        -59.031444   1.000000
      9        -59.023484   1.000000
     10        -59.020505   1.000000
     11        -58.999141   1.000000
     12        -58.998528   1.000000
     13        -29.990656   1.000000
     14        -29.956679   1.000000
     15        -29.945468   1.000000
     16        -29.915578   1.000000
     17        -14.394778   1.000000
     18        -14.285008   1.000000
     19        -14.238857   1.000000
     20        -13.794978   1.000000
     21        -13.546637   1.000000
     22        -13.512316   1.000000
     23        -13.404312   1.000000
     24        -13.011540   1.000000
     25        -12.933878   1.000000
     26        -12.738242   1.000000
     27        -12.559652   1.000000
     28        -12.485047   1.000000
     29        -11.833202   1.000000
     30        -11.788474   1.000000
     31        -11.755950   1.000000
     32        -11.569111   1.000000
     33        -11.302303   1.000000
     34        -11.058738   1.000000
     35        -11.014222   1.000000
     36        -10.966691   1.000000