   20   20    1    1
  0.1133190E+02  0.5440291E-09  0.5419717E-09  0.7686592E-09  0.5000000E-15
   1.0000000000000000E-004
  CAR 
 PrNiO3                                  
    180     72    128

  0.3885781E-15  0.3885781E-15  0.3885781E-15  0.4081633E-02
    1      -59.253517   1.000000
    2      -59.253303   1.000000
    3      -59.238024   1.000000
    4      -59.237811   1.000000
    5      -59.218550   1.000000
    6      -59.218412   1.000000
    7      -59.036989   1.000000
    8      -59.036776   1.000000
    9      -59.026035   1.000000
   10      -59.025815   1.000000
   11      -59.006841   1.000000
   12      -59.006704   1.000000
   13      -30.014826   1.000000
   14      -29.974168   1.000000
   15      -29.927205   1.000000
   16      -29.895353   1.000000
   17      -14.599127   1.000000
   18      -14.017977   1.000000
   19      -13.864229   1.000000
   20      -13.737829   1.000000
   21      -13.480396   1.000000
   22      -13.390954   1.000000
   23      -13.074124   1.000000
   24      -12.939913   1.000000
   25      -12.832058   1.000000
   26      -12.754196   1.000000
   27      -12.657470   1.000000
   28      -12.570493   1.000000
   29      -11.884470   1.000000
   30      -11.855419   1.000000
   31      -11.745302   1.000000
   32      -11.735483   1.000000
   33      -11.640501   1.000000
   34      -11.501505   1.000000
   35      -11.398166   1.000000
   36      -11.149118   1.000000
   37      -10.991725   1.000000
   38      -10.574403   1.000000
   39      -10.425394   1.000000
   40      -10.360715   1.000000
   41       -2.006317   1.000000
   42       -1.408199   1.000000
   43       -0.857412   1.000000
   44       -0.677514   1.000000
   45       -0.270006   1.000000
   46       -0.262159   1.000000
   47       -0.236110   1.000000
   48        0.106308   1.000000
   49        0.139561   1.000000
   50        0.212209   1.000000
   51        0.466654   1.000000
   52        0.479034   1.000000
   53        0.491275   1.000000
   54        0.554818   1.000000
   55        0.633129   1.000000
   56        0.779868   1.000000
   57        0.892740   1.000000
   58        1.203825   1.000000
   59        1.228333   1.000000
   60        1.427170   1.000000
   61        1.544962   1.000000
   62        1.550081   1.000000
   63        2.443570   1.000000
   64        2.458213   1.000000
   65        2.715236   1.000000
   66        2.746109   1.000000
   67        2.753888   1.000000
   68        2.762625   1.000000
   69        2.844105   1.000000
   70        2.919395   1.000000
   71        3.031328   1.000000
   72        3.058388   1.000000
   73        3.058557   1.000000
   74        3.085938   1.000000
   75        3.156424   1.000000
   76        3.565645   1.000000
   77        3.569371   1.000000
   78        3.571332   1.000000
   79        3.629564   1.000000
   80        3.650958   1.000000
   81        3.750654   1.000000
   82        3.881768   1.000000
   83        3.905556   1.000000
   84        4.003183   1.000000
   85        4.206860   1.000000
   86        4.428543   1.000000
   87        4.483135   1.000000
   88        4.521622   1.000000
   89        4.698228   1.000000
   90        4.760552   1.000000
   91        4.818884   1.000000
   92        4.986623   0.520195
   93        5.823670   0.000000
   94        7.234180   0.000000
   95        7.303064   0.000000
   96        7.334515   0.000000
   97        8.526662   0.000000
   98        8.996369   0.000000
   99        9.550401   0.000000
  100        9.596680   0.000000
  101        9.833332   0.000000
  102       10.102758   0.000000
  103       10.404309   0.000000
  104       10.522655   0.000000
  105       10.839145   0.000000
  106       10.877930   0.000000
  107       10.878010   0.000000
  108       10.892421   0.000000
  109       10.930418   0.000000
  110       11.063828   0.000000
  111       12.014899   0.000000
  112       12.114136   0.000000
  113       12.376966   0.000000
  114       12.470413   0.000000
  115       12.505972   0.000000
  116       12.597235   0.000000
  117       12.735877   0.000000
  118       14.406093   0.000000
  119       15.119381   0.000000
  120       15.148905   0.000000
  121       15.674768   0.000000
  122       16.711063   0.000000
  123       16.791435   0.000000
  124       16.851564   0.000000
  125       17.050680   0.000000
  126       17.433635   0.000000
  127       18.616124   0.000000
  128       18.655977   0.000000

  0.1428571E+00  0.3885781E-15  0.3885781E-15  0.8163265E-02
    1      -59.253476   1.000000
    2      -59.253365   1.000000
    3      -59.237979   1.000000
    4      -59.237888   1.000000
    5      -59.218569   1.000000
    6      -59.218450   1.000000
    7      -59.036943   1.000000
    8      -59.036842   1.000000
    9      -59.025994   1.000000
   10      -59.025892   1.000000
   11      -59.006861   1.000000
   12      -59.006742   1.000000
   13      -30.010395   1.000000
   14      -29.970405   1.000000
   15      -29.931114   1.000000
   16      -29.899051   1.000000
   17      -14.551567   1.000000
   18      -14.103483   1.000000
   19      -13.870410   1.000000
   20      -13.827620   1.000000
   21      -13.413372   1.000000
   22      -13.394080   1.000000
   23      -13.273621   1.000000
   24      -12.987997   1.000000
   25      -12.837901   1.000000
   26      -12.682257   1.000000
   27      -12.598545   1.000000
   28      -12.554514   1.000000
   29      -11.921358   1.000000
   30      -11.877521   1.000000
   31      -11.753245   1.000000
   32      -11.740742   1.000000
   33      -11.503206   1.000000
   34      -11.370771   1.000000
   35      -11.270225   1.000000
   36      -11.136097   1.000000
   37      -10.987166   1.000000
   38      -10.577410   1.000000
   39      -10.457043   1.000000
   40      -10.389294   1.000000
   41       -1.925953   1.000000
   42       -1.352010   1.000000
   43       -0.907082   1.000000
   44       -0.572691   1.000000
   45       -0.250652   1.000000
   46       -0.237185   1.000000
   47       -0.205691   1.000000
   48        0.006450   1.000000
   49        0.117515   1.000000
   50        0.224006   1.000000
   51        0.391604   1.000000
   52        0.431993   1.000000
   53        0.497550   1.000000
   54        0.544854   1.000000
   55        0.622476   1.000000
   56        0.646847   1.000000
   57        0.876861   1.000000
   58        0.897112   1.000000
   59        1.089640   1.000000
   60        1.425568   1.000000
   61        1.708124   1.000000
   62        1.997108   1.000000
   63        2.085370   1.000000
   64        2.268506   1.000000
   65        2.361991   1.000000
   66        2.608938   1.000000
   67        2.689844   1.000000
   68        2.749131   1.000000
   69        2.841382   1.000000
   70        2.906857   1.000000
   71        2.952567   1.000000
   72        2.979987   1.000000
   73        3.142284   1.000000
   74        3.196591   1.000000
   75        3.369085   1.000000
   76        3.499259   1.000000
   77        3.516597   1.000000
   78        3.569024   1.000000
   79        3.580849   1.000000
   80        3.715862   1.000000
   81        3.889195   1.000000
   82        3.983492   1.000000
   83        3.984297   1.000000
   84        4.191900   1.000000
   85        4.208249   1.000000
   86        4.452601   1.000000
   87        4.481249   1.000000
   88        4.534523   1.000000
   89        4.705151   1.000000
   90        4.782950   1.000000
   91        4.799808   1.048532
   92        4.960335   0.535702
   93        5.915515   0.000000
   94        7.164746   0.000000
   95        7.175529   0.000000
   96        7.187031   0.000000
   97        8.617247   0.000000
   98        9.062350   0.000000
   99        9.702287   0.000000
  100        9.734075   0.000000
  101        9.939728   0.000000
  102       10.224715   0.000000
  103       10.582648   0.000000
  104       10.591757   0.000000
  105       10.749373   0.000000
  106       10.870072   0.000000
  107       10.920965   0.000000
  108       11.040302   0.000000
  109       11.104693   0.000000
  110       11.373689   0.000000
  111       11.953654   0.000000
  112       12.037605   0.000000
  113       12.304374   0.000000
  114       12.314812   0.000000
  115       12.491286   0.000000
  116       12.523670   0.000000
  117       12.548307   0.000000
  118       14.535343   0.000000
  119       15.124969   0.000000
  120       15.183716   0.000000
  121       15.892815   0.000000
  122       15.961775   0.000000
  123       16.776031   0.000000
  124       17.120538   0.000000
  125       17.175302   0.000000
  126       17.917812   0.000000
  127       18.129801   0.000000
  128       18.561116   0.000000

  0.2857143E+00  0.3885781E-15  0.3885781E-15  0.8163265E-02
    1      -59.253509   1.000000
    2      -59.253300   1.000000
    3      -59.238018   1.000000
    4      -59.237829   1.000000
    5      -59.218571   1.000000
    6      -59.218537   1.000000
    7      -59.036979   1.000000
    8      -59.036763   1.000000
    9      -59.026031   1.000000
   10      -59.025850   1.000000
   11      -59.006862   1.000000
   12      -59.006831   1.000000
   13      -29.998110   1.000000
   14      -29.960749   1.000000
   15      -29.941326   1.000000
   16      -29.909458   1.000000
   17      -14.415964   1.000000
   18      -14.226096   1.000000
   19      -14.076931   1.000000
   20      -13.768007   1.000000
   21      -13.583913   1.000000
   22      -13.424709   1.000000
   23      -13.344649   1.000000
   24      -13.195713   1.000000
   25      -12.715117   1.000000
   26      -12.714525   1.000000
   27      -12.520977   1.000000
   28      -12.514108   1.000000
   29      -11.860005   1.000000
   30      -11.837225   1.000000
   31      -11.803399   1.000000
   32      -11.755313   1.000000
   33      -11.258032   1.000000
   34      -11.139346   1.000000
   35      -11.063245   1.000000
   36      -11.058307   1.000000
   37      -10.980234   1.000000
   38      -10.583500   1.000000
   39      -10.545808   1.000000
   40      -10.459778   1.000000
   41       -1.716437   1.000000
   42       -1.216232   1.000000
   43       -1.035785   1.000000
   44       -0.342991   1.000000
   45       -0.256686   1.000000
   46       -0.197165   1.000000
   47       -0.143645   1.000000
   48       -0.116757   1.000000
   49        0.117916   1.000000
   50        0.162943   1.000000
   51        0.246564   1.000000
   52        0.300835   1.000000
   53        0.378411   1.000000
   54        0.401005   1.000000
   55        0.488835   1.000000
   56        0.656789   1.000000
   57        0.665747   1.000000
   58        0.795246   1.000000
   59        1.087164   1.000000
   60        1.477438   1.000000
   61        1.729199   1.000000
   62        1.811549   1.000000
   63        1.994081   1.000000
   64        2.080008   1.000000
   65        2.086329   1.000000
   66        2.479693   1.000000
   67        2.483718   1.000000
   68        2.644231   1.000000
   69        2.753199   1.000000
   70        2.755161   1.000000
   71        2.790075   1.000000
   72        2.886061   1.000000
   73        3.199448   1.000000
   74        3.293530   1.000000
   75        3.392010   1.000000
   76        3.463784   1.000000
   77        3.604297   1.000000
   78        3.664252   1.000000
   79        3.730398   1.000000
   80        3.849427   1.000000
   81        3.955276   1.000000
   82        4.103586   1.000000
   83        4.129246   1.000000
   84        4.199166   1.000000
   85        4.246345   1.000000
   86        4.460134   1.000000
   87        4.472657   1.000000
   88        4.511379   1.000000
   89        4.767349   1.000000
   90        4.904165   1.010826
   91        4.986652   0.538183
   92        5.083956   0.005792
   93        6.163127   0.000000
   94        6.763560   0.000000
   95        6.785028   0.000000
   96        7.042618   0.000000
   97        8.901779   0.000000
   98        9.302034   0.000000
   99        9.983855   0.000000
  100       10.071394   0.000000
  101       10.216123   0.000000
  102       10.365161   0.000000
  103       10.458396   0.000000
  104       10.777881   0.000000
  105       10.826526   0.000000
  106       11.004994   0.000000
  107       11.125813   0.000000
  108       11.394330   0.000000
  109       11.533653   0.000000
  110       11.745917   0.000000
  111       11.958204   0.000000
  112       11.980273   0.000000
  113       12.006121   0.000000
  114       12.106937   0.000000
  115       12.264610   0.000000
  116       12.331988   0.000000
  117       12.401512   0.000000
  118       14.647216   0.000000
  119       14.949913   0.000000
  120       15.375259   0.000000
  121       15.567198   0.000000
  122       16.227578   0.000000
  123       16.678133   0.000000
  124       17.320363   0.000000
  125       17.328329   0.000000
  126       17.437689   0.000000
  127       18.505630   0.000000
  128       18.597337   0.000000

  0.4285714E+00  0.3885781E-15  0.3885781E-15  0.8163265E-02
    1      -59.253543   1.000000
    2      -59.253298   1.000000
    3      -59.238053   1.000000
    4      -59.237827   1.000000
    5      -59.218579   1.000000
    6      -59.218534   1.000000
    7      -59.037012   1.000000
    8      -59.036762   1.000000
    9      -59.026067   1.000000
   10      -59.025847   1.000000
   11      -59.006867   1.000000
   12      -59.006828   1.000000
   13      -29.980747   1.000000
   14      -29.962822   1.000000
   15      -29.940491   1.000000
   16      -29.924525   1.000000
   17      -14.303278   1.000000
   18      -14.238138   1.000000
   19      -14.170522   1.000000
   20      -13.897225   1.000000
   21      -13.673475   1.000000
   22      -13.531288   1.000000
   23      -13.359146   1.000000
   24      -13.242777   1.000000
   25      -12.759625   1.000000
   26      -12.709650   1.000000
   27      -12.465597   1.000000
   28      -12.449344   1.000000
   29      -11.902951   1.000000
   30      -11.865955   1.000000
   31      -11.712730   1.000000
   32      -11.638946   1.000000
   33      -11.184956   1.000000
   34      -11.096172   1.000000
   35      -10.892900   1.000000
   36      -10.892080   1.000000
   37      -10.856741   1.000000
   38      -10.681782   1.000000
   39      -10.584122   1.000000
   40      -10.540817   1.000000
   41       -1.458496   1.000000
   42       -1.229139   1.000000
   43       -1.007812   1.000000
   44       -0.717542   1.000000
   45       -0.111718   1.000000
   46       -0.068281   1.000000
   47       -0.043646   1.000000
   48       -0.023731   1.000000
   49        0.026189   1.000000
   50        0.065155   1.000000
   51        0.199595   1.000000
   52        0.205441   1.000000
   53        0.341426   1.000000
   54        0.392142   1.000000
   55        0.397490   1.000000
   56        0.662890   1.000000
   57        0.688732   1.000000
   58        0.805158   1.000000
   59        1.006148   1.000000
   60        1.273209   1.000000
   61        1.309487   1.000000
   62        1.583881   1.000000
   63        1.900685   1.000000
   64        2.064899   1.000000
   65        2.135531   1.000000
   66        2.362431   1.000000
   67        2.453769   1.000000
   68        2.520426   1.000000
   69        2.715098   1.000000
   70        2.807565   1.000000
   71        2.821060   1.000000
   72        2.942392   1.000000
   73        2.986357   1.000000
   74        3.159326   1.000000
   75        3.364232   1.000000
   76        3.392416   1.000000
   77        3.851793   1.000000
   78        3.855852   1.000000
   79        3.938842   1.000000
   80        3.947451   1.000000
   81        3.998427   1.000000
   82        4.111227   1.000000
   83        4.152948   1.000000
   84        4.154593   1.000000
   85        4.177654   1.000000
   86        4.263712   1.000000
   87        4.470410   1.000000
   88        4.480483   1.000000
   89        4.780976   1.000000
   90        4.840591   1.039753
   91        5.556915  -0.035333
   92        5.637247   0.000000
   93        6.207967   0.000000
   94        6.257135   0.000000
   95        6.488553   0.000000
   96        6.801694   0.000000
   97        9.346056   0.000000
   98        9.675645   0.000000
   99        9.899869   0.000000
  100       10.027643   0.000000
  101       10.446121   0.000000
  102       10.491650   0.000000
  103       10.665193   0.000000
  104       10.866415   0.000000
  105       11.029003   0.000000
  106       11.115478   0.000000
  107       11.186896   0.000000
  108       11.329341   0.000000
  109       11.669294   0.000000
  110       11.719610   0.000000
  111       11.818849   0.000000
  112       11.834169   0.000000
  113       12.156037   0.000000
  114       12.179133   0.000000
  115       12.213789   0.000000
  116       12.235893   0.000000
  117       12.893451   0.000000
  118       13.766206   0.000000
  119       15.433282   0.000000
  120       15.555975   0.000000
  121       15.790170   0.000000
  122       16.320906   0.000000
  123       16.515980   0.000000
  124       16.554335   0.000000
  125       17.643033   0.000000
  126       17.992591   0.000000
  127       18.070083   0.000000
  128       18.556321   0.000000

  0.3885781E-15  0.1428571E+00  0.3885781E-15  0.8163265E-02
    1      -59.253532   1.000000
    2      -59.253343   1.000000
    3      -59.238038   1.000000
    4      -59.237863   1.000000
    5      -59.218565   1.000000
    6      -59.218553   1.000000
    7      -59.037000   1.000000
    8      -59.036815   1.000000
    9      -59.026051   1.000000
   10      -59.025871   1.000000
   11      -59.006857   1.000000
   12      -59.006845   1.000000
   13      -30.010303   1.000000
   14      -29.970168   1.000000
   15      -29.931355   1.000000
   16      -29.899153   1.000000
   17      -14.546137   1.000000
   18      -14.011426   1.000000
   19      -13.947422   1.000000
   20      -13.765377   1.000000
   21      -13.465251   1.000000
   22      -13.372275   1.000000
   23      -13.072458   1.000000
   24      -13.044455   1.000000
   25      -13.001748   1.000000
   26      -12.822113   1.000000
   27      -12.784828   1.000000
   28      -12.457412   1.000000
   29      -11.838691   1.000000
   30      -11.811525   1.000000
   31      -11.675323   1.000000
   32      -11.646380   1.000000
   33      -11.448762   1.000000
   34      -11.413513   1.000000
   35      -11.407081   1.000000
   36      -11.118146   1.000000
   37      -10.984992   1.000000
   38      -10.606375   1.000000
   39      -10.461656   1.000000
   40      -10.387515   1.000000
   41       -1.903542   1.000000
   42       -1.326052   1.000000
   43       -0.885790   1.000000
   44       -0.573021   1.000000
   45       -0.254908   1.000000
   46       -0.242963   1.000000
   47       -0.202784   1.000000
   48        0.125444   1.000000
   49        0.139463   1.000000
   50        0.194425   1.000000
   51        0.385828   1.000000
   52        0.436556   1.000000
   53        0.460966   1.000000
   54        0.490298   1.000000
   55        0.506716   1.000000
   56        0.776366   1.000000
   57        0.822758   1.000000
   58        0.967009   1.000000
   59        1.120130   1.000000
   60        1.430028   1.000000
   61        1.639527   1.000000
   62        2.053539   1.000000
   63        2.384536   1.000000
   64        2.407669   1.000000
   65        2.433954   1.000000
   66        2.447106   1.000000
   67        2.522073   1.000000
   68        2.691327   1.000000
   69        2.735651   1.000000
   70        2.771090   1.000000
   71        2.820358   1.000000
   72        2.958342   1.000000
   73        3.282767   1.000000
   74        3.323367   1.000000
   75        3.347081   1.000000
   76        3.383805   1.000000
   77        3.466149   1.000000
   78        3.489829   1.000000
   79        3.663386   1.000000
   80        3.775498   1.000000
   81        3.894187   1.000000
   82        4.017499   1.000000
   83        4.061427   1.000000
   84        4.118500   1.000000
   85        4.204807   1.000000
   86        4.438288   1.000000
   87        4.447981   1.000000
   88        4.518121   1.000000
   89        4.697341   1.000000
   90        4.747562   1.000000
   91        4.797411   1.010183
   92        4.968559   0.588902
   93        5.931021   0.000000
   94        7.140945   0.000000
   95        7.147394   0.000000
   96        7.183870   0.000000
   97        8.674003   0.000000
   98        8.974799   0.000000
   99        9.694689   0.000000
  100        9.797615   0.000000
  101        9.964377   0.000000
  102       10.235745   0.000000
  103       10.585712   0.000000
  104       10.667467   0.000000
  105       10.797809   0.000000
  106       10.909307   0.000000
  107       10.956527   0.000000
  108       10.978868   0.000000
  109       11.046901   0.000000
  110       11.110830   0.000000
  111       12.039486   0.000000
  112       12.058736   0.000000
  113       12.338987   0.000000
  114       12.382047   0.000000
  115       12.403574   0.000000
  116       12.418079   0.000000
  117       12.523549   0.000000
  118       14.594876   0.000000
  119       15.217533   0.000000
  120       15.365017   0.000000
  121       15.427854   0.000000
  122       16.337749   0.000000
  123       16.782338   0.000000
  124       17.041042   0.000000
  125       17.194296   0.000000
  126       17.965655   0.000000
  127       18.511670   0.000000
  128       18.581016   0.000000

  0.1428571E+00  0.1428571E+00  0.3885781E-15  0.1632653E-01
    1      -59.253471   1.000000
    2      -59.253402   1.000000
    3      -59.237988   1.000000
    4      -59.237910   1.000000
    5      -59.218558   1.000000
    6      -59.218499   1.000000
    7      -59.036938   1.000000
    8      -59.036877   1.000000
    9      -59.026002   1.000000
   10      -59.025918   1.000000
   11      -59.006851   1.000000
   12      -59.006790   1.000000
   13      -30.006280   1.000000
   14      -29.966775   1.000000
   15      -29.934820   1.000000
   16      -29.902468   1.000000
   17      -14.500332   1.000000
   18      -14.170222   1.000000
   19      -13.959020   1.000000
   20      -13.755592   1.000000
   21      -13.530723   1.000000
   22      -13.289927   1.000000
   23      -13.267646   1.000000
   24      -13.108532   1.000000
   25      -12.892121   1.000000
   26      -12.850566   1.000000
   27      -12.585364   1.000000
   28      -12.446634   1.000000
   29      -11.886378   1.000000
   30      -11.857494   1.000000
   31      -11.802038   1.000000
   32      -11.576801   1.000000
   33      -11.394339   1.000000
   34      -11.277651   1.000000
   35      -11.240148   1.000000
   36      -11.145037   1.000000
   37      -10.954383   1.000000
   38      -10.615369   1.000000
   39      -10.488317   1.000000
   40      -10.392912   1.000000
   41       -1.837942   1.000000
   42       -1.278520   1.000000
   43       -0.932094   1.000000
   44       -0.476530   1.000000
   45       -0.262390   1.000000
   46       -0.212088   1.000000
   47       -0.149396   1.000000
   48       -0.017196   1.000000
   49        0.090120   1.000000
   50        0.246018   1.000000
   51        0.272979   1.000000
   52        0.373175   1.000000
   53        0.408761   1.000000
   54        0.470146   1.000000
   55        0.590213   1.000000
   56        0.617589   1.000000
   57        0.696992   1.000000
   58        0.917190   1.000000
   59        1.368380   1.000000
   60        1.457730   1.000000
   61        1.573357   1.000000
   62        2.047605   1.000000
   63        2.181519   1.000000
   64        2.211546   1.000000
   65        2.351750   1.000000
   66        2.421790   1.000000
   67        2.462144   1.000000
   68        2.613452   1.000000
   69        2.677926   1.000000
   70        2.797332   1.000000
   71        2.884120   1.000000
   72        3.149350   1.000000
   73        3.199173   1.000000
   74        3.225356   1.000000
   75        3.252582   1.000000
   76        3.385578   1.000000
   77        3.480120   1.000000
   78        3.609718   1.000000
   79        3.822783   1.000000
   80        3.853711   1.000000
   81        3.861327   1.000000
   82        3.939278   1.000000
   83        4.001392   1.000000
   84        4.165103   1.000000
   85        4.271079   1.000000
   86        4.439598   1.000000
   87        4.481116   1.000000
   88        4.534773   1.000000
   89        4.733526   1.000000
   90        4.738660   1.000000
   91        4.876522   1.026302
   92        4.939986   0.517117
   93        6.048547   0.000000
   94        6.871058   0.000000
   95        7.012979   0.000000
   96        7.272557   0.000000
   97        8.765757   0.000000
   98        9.049824   0.000000
   99        9.817318   0.000000
  100        9.927235   0.000000
  101       10.047520   0.000000
  102       10.376283   0.000000
  103       10.642267   0.000000
  104       10.801166   0.000000
  105       10.816081   0.000000
  106       10.934173   0.000000
  107       10.981862   0.000000
  108       11.098879   0.000000
  109       11.147838   0.000000
  110       11.396330   0.000000
  111       11.889041   0.000000
  112       12.078489   0.000000
  113       12.132866   0.000000
  114       12.262854   0.000000
  115       12.360328   0.000000
  116       12.502087   0.000000
  117       12.540540   0.000000
  118       14.683920   0.000000
  119       15.260929   0.000000
  120       15.299931   0.000000
  121       15.710053   0.000000
  122       16.099768   0.000000
  123       16.400409   0.000000
  124       17.094772   0.000000
  125       17.781081   0.000000
  126       17.873207   0.000000
  127       18.173798   0.000000
  128       18.524154   0.000000

  0.2857143E+00  0.1428571E+00  0.3885781E-15  0.1632653E-01
    1      -59.253456   1.000000
    2      -59.253325   1.000000
    3      -59.237969   1.000000
    4      -59.237844   1.000000
    5      -59.218543   1.000000
    6      -59.218454   1.000000
    7      -59.036926   1.000000
    8      -59.036790   1.000000
    9      -59.025981   1.000000
   10      -59.025860   1.000000
   11      -59.006835   1.000000
   12      -59.006746   1.000000
   13      -29.995126   1.000000
   14      -29.958394   1.000000
   15      -29.943587   1.000000
   16      -29.911810   1.000000
   17      -14.384093   1.000000
   18      -14.300453   1.000000
   19      -14.170009   1.000000
   20      -13.741240   1.000000
   21      -13.572170   1.000000
   22      -13.476318   1.000000
   23      -13.411798   1.000000
   24      -13.039906   1.000000
   25      -12.765567   1.000000
   26      -12.755675   1.000000
   27      -12.546283   1.000000
   28      -12.456395   1.000000
   29      -11.873212   1.000000
   30      -11.844462   1.000000
   31      -11.768329   1.000000
   32      -11.678209   1.000000
   33      -11.308469   1.000000
   34      -11.069336   1.000000
   35      -11.035027   1.000000
   36      -11.012557   1.000000
   37      -10.968155   1.000000
   38      -10.594172   1.000000
   39      -10.562493   1.000000
   40      -10.414772   1.000000
   41       -1.666985   1.000000
   42       -1.170089   1.000000
   43       -1.050926   1.000000
   44       -0.395030   1.000000
   45       -0.242893   1.000000
   46       -0.167284   1.000000
   47       -0.131567   1.000000
   48       -0.039420   1.000000
   49        0.028166   1.000000
   50        0.064706   1.000000
   51        0.112174   1.000000
   52        0.307539   1.000000
   53        0.369215   1.000000
   54        0.388490   1.000000
   55        0.424072   1.000000
   56        0.667110   1.000000
   57        0.682664   1.000000
   58        0.933547   1.000000
   59        1.180803   1.000000
   60        1.509003   1.000000
   61        1.784417   1.000000
   62        1.832697   1.000000
   63        1.880961   1.000000
   64        2.049742   1.000000
   65        2.059579   1.000000
   66        2.261998   1.000000
   67        2.473141   1.000000
   68        2.537336   1.000000
   69        2.618789   1.000000
   70        2.783557   1.000000
   71        2.873134   1.000000
   72        2.995193   1.000000
   73        3.155615   1.000000
   74        3.207418   1.000000
   75        3.312972   1.000000
   76        3.419136   1.000000
   77        3.429624   1.000000
   78        3.776073   1.000000
   79        3.822394   1.000000
   80        3.968823   1.000000
   81        3.990669   1.000000
   82        4.061826   1.000000
   83        4.070576   1.000000
   84        4.129839   1.000000
   85        4.301771   1.000000
   86        4.425153   1.000000
   87        4.465778   1.000000
   88        4.483044   1.000000
   89        4.710775   1.000000
   90        4.876925   1.005981
   91        4.935997   0.744660
   92        5.195076  -0.016940
   93        6.341950   0.000000
   94        6.419997   0.000000
   95        6.663042   0.000000
   96        7.211017   0.000000
   97        9.041509   0.000000
   98        9.306820   0.000000
   99       10.112542   0.000000
  100       10.149213   0.000000
  101       10.253853   0.000000
  102       10.459371   0.000000
  103       10.607241   0.000000
  104       10.817373   0.000000
  105       10.976313   0.000000
  106       11.047169   0.000000
  107       11.200084   0.000000
  108       11.353580   0.000000
  109       11.526115   0.000000
  110       11.792142   0.000000
  111       11.832216   0.000000
  112       11.933796   0.000000
  113       12.124243   0.000000
  114       12.157463   0.000000
  115       12.378434   0.000000
  116       12.396485   0.000000
  117       12.457978   0.000000
  118       14.801962   0.000000
  119       15.064370   0.000000
  120       15.463916   0.000000
  121       15.620928   0.000000
  122       16.199936   0.000000