       N       E                     dE             d eps       ncg     rms          rms(c)
DAV:   1    -0.142559178307E+03   -0.14256E+03   -0.26741E-07 38328   0.306E-03    0.190E-01
DAV:   2    -0.142559744771E+03   -0.56646E-03   -0.19876E-03 51816   0.282E-01    0.176E-01
DAV:   3    -0.142559979984E+03   -0.23521E-03   -0.55259E-03 41548   0.491E-01    0.371E-01
DAV:   4    -0.142559528599E+03    0.45138E-03   -0.41287E-03 44908   0.360E-01    0.177E-01
DAV:   5    -0.142559470927E+03    0.57672E-04   -0.10925E-03 41328   0.187E-01    0.699E-02
DAV:   6    -0.142559559331E+03   -0.88404E-04   -0.61789E-04 40620   0.142E-01    0.120E-01
DAV:   7    -0.142559540282E+03    0.19049E-04   -0.32416E-04 40224   0.116E-01    0.132E-02
DAV:   8    -0.142559551426E+03   -0.11144E-04   -0.77029E-06 41632   0.234E-02    0.603E-03
DAV:   9    -0.142559551586E+03   -0.16039E-06   -0.21480E-06 43472   0.102E-02    0.268E-03
DAV:  10    -0.142559548427E+03    0.31594E-05   -0.31914E-07 38008   0.277E-03    0.139E-03
DAV:  11    -0.142559545966E+03    0.24610E-05   -0.19243E-07 38968   0.172E-03    0.678E-04
DAV:  12    -0.142559546680E+03   -0.71391E-06   -0.22264E-08 42408   0.806E-04    0.222E-04
DAV:  13    -0.142559546850E+03   -0.17010E-06   -0.49557E-09 37064   0.277E-04    0.899E-05
DAV:  14    -0.142559546820E+03    0.29926E-07   -0.45327E-10 28608   0.101E-04    0.383E-05
DAV:  15    -0.142559546787E+03    0.33451E-07   -0.81196E-11 19128   0.470E-05    0.180E-05
DAV:  16    -0.142559546796E+03   -0.94224E-08   -0.39957E-11 18536   0.289E-05    0.145E-05
DAV:  17    -0.142559546795E+03    0.51296E-09   -0.13218E-11 18104   0.173E-05    0.653E-06
DAV:  18    -0.142559546793E+03    0.28958E-08   -0.98624E-12 17908   0.936E-06    0.330E-06
DAV:  19    -0.142559546788E+03    0.42346E-08   -0.67099E-12 17680   0.855E-06    0.238E-06
DAV:  20    -0.142559546789E+03   -0.61118E-09   -0.46490E-12 17560   0.489E-06    0.117E-06
DAV:  21    -0.142559546789E+03   -0.18190E-09   -0.55500E-12 17544   0.350E-06    0.131E-06
DAV:  22    -0.142559546790E+03   -0.14006E-08   -0.50024E-12 17396   0.257E-06    0.368E-07
DAV:  23    -0.142559546790E+03    0.64028E-09   -0.42172E-12 17276   0.192E-06    0.502E-07
DAV:  24    -0.142559546790E+03   -0.43292E-09   -0.22129E-12 17100   0.152E-06    0.209E-07
DAV:  25    -0.142559546790E+03   -0.19645E-09   -0.31971E-12 16952   0.113E-06    0.242E-07
DAV:  26    -0.142559546790E+03    0.45475E-09   -0.38087E-12 16840   0.945E-07    0.168E-07
DAV:  27    -0.142559546790E+03   -0.28740E-09   -0.16605E-12 16732   0.693E-07    0.996E-08
DAV:  28    -0.142559546790E+03    0.54206E-09   -0.18679E-12 16660   0.588E-07    0.131E-07
DAV:  29    -0.142559546791E+03   -0.86220E-09   -0.72607E-13 16584   0.427E-07    0.340E-08
DAV:  30    -0.142559546791E+03    0.11642E-09    0.33500E-13 16496   0.372E-07    0.105E-07
DAV:  31    -0.142559546790E+03    0.26557E-09   -0.64876E-13 16452   0.268E-07    0.139E-08
DAV:  32    -0.142559546790E+03    0.72760E-11   -0.55364E-12 16400   0.234E-07
   1 F= -.14255955E+03 E0= -.14255955E+03  d E =0.000000E+00
