 vasp.6.4.2 20Jul23 (build Oct 20 2023 10:24:29) complex                         
 executed on             LinuxGNU date 2023.10.23  08:04:54
 running    8 mpi-ranks, with    8 threads/rank, on    1 nodes
 distrk:  each k-point on    4 cores,    2 groups
 distr:  one band on NCORE=   1 cores,    4 groups


--------------------------------------------------------------------------------------------------------


 INCAR:
   SYSTEM = PrNiO3
   ICHARG = 1
   EDIFF = 1E-10
   ISYM = -1
   NELMIN = 10
   ISMEAR = -5
   LMAXMIX = 6
   KPAR = 2
   LORBIT = 14
   LWAVE = TRUE
   LCHARG = TRUE

 POTCAR:    PAW_PBE Pr_3 07Sep2000                
 POTCAR:    PAW_PBE Ni_pv 06Sep2000               
 POTCAR:    PAW_PBE O 08Apr2002                   
 POTCAR:    PAW_PBE Pr_3 07Sep2000                
   VRHFIN =Pr : [core=Xe4]                                                                          
   LEXCH  = PE                                                                                      
   EATOM  =   912.8502 eV,   67.0926 Ry                                                             
                                                                                                    
   TITEL  = PAW_PBE Pr_3 07Sep2000                                                                  
   LULTRA =        F    use ultrasoft PP ?                                                          
   IUNSCR =        1    unscreen: 0-lin 1-nonlin 2-no                                               
   RPACOR =    2.400    partial core radius                                                         
   POMASS =  140.907; ZVAL   =   11.000    mass and valenz                                          
   RCORE  =    2.800    outmost cutoff radius                                                       
   RWIGS  =    3.100; RWIGS  =    1.640    wigner-seitz radius (au A)                               
   ENMAX  =  181.719; ENMIN  =  136.289 eV                                                          
   RCLOC  =    2.419    cutoff for local pot                                                        
   LCOR   =        T    correct aug charges                                                         
   LPAW   =        T    paw PP                                                                      
   EAUG   =  303.718                                                                                
   DEXC   =    0.000                                                                                
   RMAX   =    2.867    core radius for proj-oper                                                   
   RAUG   =    1.300    factor for augmentation sphere                                              
   RDEP   =    2.816    radius for radial grids                                                     
   RDEPT  =    2.395    core radius for aug-charge                                                  
                                                                                                    
   Atomic configuration                                                                             
   14 entries                                                                                       
     n  l   j            E        occ.                                                              
     1  0  0.50    -41810.3934   2.0000                                                             
     2  0  0.50     -6731.1418   2.0000                                                             
     2  1  1.50     -6022.4876   6.0000                                                             
     3  0  0.50     -1458.2043   2.0000                                                             
     3  1  1.50     -1233.8862   6.0000                                                             
     3  2  2.50      -919.2566  10.0000                                                             
     4  0  0.50      -295.2681   2.0000                                                             
     4  1  1.50      -221.8430   6.0000                                                             
     4  2  2.50      -116.8418  10.0000                                                             
     4  3  2.50        -6.2311   2.0000                                                             
     5  0  0.50       -42.1589   2.0000                                                             
     6  0  0.50        -3.8068   2.0000                                                             
     5  1  1.50       -23.9655   6.0000                                                             
     5  2  2.50        -3.0008   1.0000                                                             
   Description                                                                                      
     l       E           TYP  RCUT    TYP  RCUT                                                     
     0    -42.1589422     23  2.800                                                                 
     0     -3.8068346     23  2.800                                                                 
     1    -23.9655307     23  2.800                                                                 
     1     13.6058260     23  2.800                                                                 
     2     -3.0008139     23  2.800                                                                 
     2     -0.1733532     23  2.800                                                                 
  local pseudopotential read in
  partial core-charges read in
  partial kinetic energy density read in
  atomic valenz-charges read in
  non local Contribution for L=           0  read in
    real space projection operators read in
  non local Contribution for L=           0  read in
    real space projection operators read in
  non local Contribution for L=           1  read in
    real space projection operators read in
  non local Contribution for L=           1  read in
    real space projection operators read in
  non local Contribution for L=           2  read in
    real space projection operators read in
  non local Contribution for L=           2  read in
    real space projection operators read in
    PAW grid and wavefunctions read in

   number of l-projection  operators is LMAX  =           6
   number of lm-projection operators is LMMAX =          18

 POTCAR:    PAW_PBE Ni_pv 06Sep2000               
   VRHFIN =Ni:                                                                                      
   LEXCH  = PE                                                                                      
   EATOM  =  3501.1230 eV,  257.3253 Ry                                                             
                                                                                                    
   TITEL  = PAW_PBE Ni_pv 06Sep2000                                                                 
   LULTRA =        F    use ultrasoft PP ?                                                          
   IUNSCR =        1    unscreen: 0-lin 1-nonlin 2-no                                               
   RPACOR =    1.500    partial core radius                                                         
   POMASS =   58.690; ZVAL   =   16.000    mass and valenz                                          
   RCORE  =    2.000    outmost cutoff radius                                                       
   RWIGS  =    2.000; RWIGS  =    1.058    wigner-seitz radius (au A)                               
   ENMAX  =  367.986; ENMIN  =  275.989 eV                                                          
   RCLOC  =    1.301    cutoff for local pot                                                        
   LCOR   =        T    correct aug charges                                                         
   LPAW   =        T    paw PP                                                                      
   EAUG   =  703.443                                                                                
   DEXC   =    0.000                                                                                
   RMAX   =    2.041    core radius for proj-oper                                                   
   RAUG   =    1.300    factor for augmentation sphere                                              
   RDEP   =    2.103    radius for radial grids                                                     
   RDEPT  =    1.618    core radius for aug-charge                                                  
                                                                                                    
   Atomic configuration                                                                             
    8 entries                                                                                       
     n  l   j            E        occ.                                                              
     1  0  0.50     -8206.4253   2.0000                                                             
     2  0  0.50      -976.1748   2.0000                                                             
     2  1  1.50      -839.0571   6.0000                                                             
     3  0  0.50      -105.9991   2.0000                                                             
     3  1  1.50       -66.4603   6.0000                                                             
     3  2  2.50        -4.6458   9.0000                                                             
     4  0  0.50        -4.4926   1.0000                                                             
     4  3  2.50        -1.3606   0.0000                                                             
   Description                                                                                      
     l       E           TYP  RCUT    TYP  RCUT                                                     
     1    -66.4602962     23  1.700                                                                 
     1     -1.3605826     23  1.700                                                                 
     2     -4.6457867     23  2.000                                                                 
     2     -6.0063693     23  2.000                                                                 
     0     -4.4925576     23  1.900                                                                 
     0     16.3626226     23  1.900                                                                 
  local pseudopotential read in
  partial core-charges read in
  partial kinetic energy density read in
  atomic valenz-charges read in
  non local Contribution for L=           1  read in
    real space projection operators read in
  non local Contribution for L=           1  read in
    real space projection operators read in
  non local Contribution for L=           2  read in
    real space projection operators read in
  non local Contribution for L=           2  read in
    real space projection operators read in
  non local Contribution for L=           0  read in
    real space projection operators read in
  non local Contribution for L=           0  read in
    real space projection operators read in
    PAW grid and wavefunctions read in

   number of l-projection  operators is LMAX  =           6
   number of lm-projection operators is LMMAX =          18

 POTCAR:    PAW_PBE O 08Apr2002                   
   VRHFIN =O: s2p4                                                                                  
   LEXCH  = PE                                                                                      
   EATOM  =   432.3788 eV,   31.7789 Ry                                                             
                                                                                                    
   TITEL  = PAW_PBE O 08Apr2002                                                                     
   LULTRA =        F    use ultrasoft PP ?                                                          
   IUNSCR =        1    unscreen: 0-lin 1-nonlin 2-no                                               
   RPACOR =    1.200    partial core radius                                                         
   POMASS =   16.000; ZVAL   =    6.000    mass and valenz                                          
   RCORE  =    1.520    outmost cutoff radius                                                       
   RWIGS  =    1.550; RWIGS  =    0.820    wigner-seitz radius (au A)                               
   ENMAX  =  400.000; ENMIN  =  300.000 eV                                                          
   ICORE  =        2    local potential                                                             
   LCOR   =        T    correct aug charges                                                         
   LPAW   =        T    paw PP                                                                      
   EAUG   =  605.392                                                                                
   DEXC   =    0.000                                                                                
   RMAX   =    1.553    core radius for proj-oper                                                   
   RAUG   =    1.300    factor for augmentation sphere                                              
   RDEP   =    1.550    radius for radial grids                                                     
   RDEPT  =    1.329    core radius for aug-charge                                                  
                                                                                                    
   Atomic configuration                                                                             
    4 entries                                                                                       
     n  l   j            E        occ.                                                              
     1  0  0.50      -514.6923   2.0000                                                             
     2  0  0.50       -23.9615   2.0000                                                             
     2  1  0.50        -9.0305   4.0000                                                             
     3  2  1.50        -9.5241   0.0000                                                             
   Description                                                                                      
     l       E           TYP  RCUT    TYP  RCUT                                                     
     0    -23.9615318     23  1.200                                                                 
     0     -9.5240782     23  1.200                                                                 
     1     -9.0304911     23  1.520                                                                 
     1      8.1634956     23  1.520                                                                 
     2     -9.5240782      7  1.500                                                                 
  local pseudopotential read in
  partial core-charges read in
  partial kinetic energy density read in
  kinetic energy density of atom read in
  atomic valenz-charges read in
  non local Contribution for L=           0  read in
    real space projection operators read in
  non local Contribution for L=           0  read in
    real space projection operators read in
  non local Contribution for L=           1  read in
    real space projection operators read in
  non local Contribution for L=           1  read in
    real space projection operators read in
    PAW grid and wavefunctions read in

   number of l-projection  operators is LMAX  =           4
   number of lm-projection operators is LMMAX =           8

 -----------------------------------------------------------------------------
|                                                                             |
|               ----> ADVICE to this user running VASP <----                  |
|                                                                             |
|     You have a (more or less) 'large supercell' and for larger cells it     |
|     might be more efficient to use real-space projection operators.         |
|     Therefore, try LREAL= Auto in the INCAR file.                           |
|     Mind: For very accurate calculation, you might also keep the            |
|     reciprocal projection scheme (i.e. LREAL=.FALSE.).                      |
|                                                                             |
 -----------------------------------------------------------------------------

  PAW_PBE Pr_3 07Sep2000                :
 energy of atom  1       EATOM= -912.8502
 kinetic energy error for atom=    0.0014 (will be added to EATOM!!)
  PAW_PBE Ni_pv 06Sep2000               :
 energy of atom  2       EATOM=-3501.1230
 kinetic energy error for atom=    0.1021 (will be added to EATOM!!)
  PAW_PBE O 08Apr2002                   :
 energy of atom  3       EATOM= -432.3788
 kinetic energy error for atom=    0.1156 (will be added to EATOM!!)


 POSCAR: PrNiO3
  positions in direct lattice
  No initial velocities read in
 exchange correlation table for  LEXCH =        8
   RHO(1)=    0.500       N(1)  =     2000
   RHO(2)=  100.500       N(2)  =     4000



--------------------------------------------------------------------------------------------------------


 ion  position               nearest neighbor table
   1  0.993  0.036  0.250-  20 2.40  16 2.44  15 2.44  18 2.51   9 2.56  10 2.57  13 2.73  14 2.73
                             6 3.17   8 3.17   4 3.78   4 3.78   2 3.86   2 3.86   4 3.90   4 3.90
   2  0.007  0.964  0.750-  17 2.40  14 2.44  13 2.44  19 2.51  11 2.56  12 2.57  15 2.73  16 2.73
                             6 3.17   8 3.17   3 3.78   3 3.78   1 3.86   1 3.86   3 3.90   3 3.90
   3  0.493  0.464  0.750-  19 2.40  11 2.44  12 2.44  17 2.51  14 2.56  13 2.57  10 2.73   9 2.73
                             5 3.17   7 3.17   2 3.78   2 3.78   4 3.86   4 3.86   2 3.90   2 3.90
   4  0.507  0.536  0.250-  18 2.40   9 2.44  10 2.44  20 2.51  16 2.56  15 2.57  12 2.73  11 2.73
                             5 3.17   7 3.17   1 3.78   1 3.78   3 3.86   3 3.86   1 3.90   1 3.90
   5  0.500  0.000  0.000-  13 1.98  15 1.98  11 1.98   9 1.98  17 1.98  20 1.98   3 3.17   4 3.17

   6  0.000  0.500  0.000-   9 1.93  11 1.93  15 1.93  13 1.93  19 1.93  18 1.93   1 3.17   2 3.17

   7  0.500  0.000  0.500-  14 1.93  16 1.93  12 1.93  10 1.93  17 1.93  20 1.93   3 3.17   4 3.17

   8  0.000  0.500  0.500-  10 1.98  12 1.98  16 1.98  14 1.98  19 1.98  18 1.98   1 3.17   2 3.17

   9  0.724  0.283  0.038-   6 1.93   5 1.98   4 2.44   1 2.56   3 2.73
  10  0.718  0.276  0.462-   7 1.93   8 1.98   4 2.44   1 2.57   3 2.73
  11  0.276  0.717  0.962-   6 1.93   5 1.98   3 2.44   2 2.56   4 2.73
  12  0.282  0.724  0.538-   7 1.93   8 1.98   3 2.44   2 2.57   4 2.73
  13  0.218  0.224  0.962-   6 1.93   5 1.98   2 2.44   3 2.57   1 2.73
  14  0.224  0.217  0.538-   7 1.93   8 1.98   2 2.44   3 2.56   1 2.73
  15  0.782  0.776  0.038-   6 1.93   5 1.98   1 2.44   4 2.57   2 2.73
  16  0.776  0.783  0.462-   7 1.93   8 1.98   1 2.44   4 2.56   2 2.73
  17  0.568  0.006  0.747-   7 1.93   5 1.98   2 2.40   3 2.51
  18  0.068  0.494  0.247-   6 1.93   8 1.98   4 2.40   1 2.51
  19  0.932  0.506  0.753-   6 1.93   8 1.98   3 2.40   2 2.51
  20  0.432  0.994  0.253-   7 1.93   5 1.98   1 2.40   4 2.51


IMPORTANT INFORMATION: All symmetrisations will be switched off!
NOSYMM: (Re-)initialisation of all symmetry stuff for point group C_1.


----------------------------------------------------------------------------------------

                                     Primitive cell                                     

  volume of cell :     226.6379

  direct lattice vectors                    reciprocal lattice vectors
     5.440290838 -0.000000000  0.000000000     0.183813702 -0.000000000  0.000000000
     0.000000000  5.419716597  0.000000000     0.000000000  0.184511493 -0.000000000
     0.000000000  0.000000000  7.686592486    -0.000000000  0.000000000  0.130096659

  length of vectors
     5.440290838  5.419716597  7.686592486     0.183813702  0.184511493  0.130096659

  position of ions in fractional coordinates (direct lattice)
     0.992500481  0.036009512  0.250000000
     0.007499519  0.963990488  0.750000000
     0.492500481  0.463990488  0.750000000
     0.507499519  0.536009512  0.250000000
     0.500000000  0.000000000  0.000000000
     1.000000000  0.500000000  0.000000000
     0.500000000  0.000000000  0.500000000
     1.000000000  0.500000000  0.500000000
     0.724459684  0.282999785  0.037941946
     0.717695326  0.276235427  0.462058051
     0.275540316  0.717000245  0.962058080
     0.282304674  0.723764603  0.537941920
     0.217695326  0.223764573  0.962058080
     0.224459684  0.217000215  0.537941920
     0.782304674  0.776235397  0.037941946
     0.775540316  0.782999755  0.462058051
     0.568297090  0.006306752  0.746617821
     0.068297119  0.493693248  0.246617821
     0.931702910  0.506306782  0.753382179
     0.431702881  0.993693218  0.253382179

  ion indices of the primitive-cell ions
   primitive index   ion index
                 1           1
                 2           2
                 3           3
                 4           4
                 5           5
                 6           6
                 7           7
                 8           8
                 9           9
                10          10
                11          11
                12          12
                13          13
                14          14
                15          15
                16          16
                17          17
                18          18
                19          19
                20          20

----------------------------------------------------------------------------------------



 KPOINTS: Automatic kpoint scheme                 

Automatic generation of k-mesh.
 Grid dimensions read from file:
 generate k-points for:    6    6    4

 Generating k-lattice:

  Cartesian coordinates                     Fractional coordinates (reciprocal lattice)
     0.030635617 -0.000000000  0.000000000     0.166666667  0.000000000  0.000000000
     0.000000000  0.030751915 -0.000000000     0.000000000  0.166666667  0.000000000
    -0.000000000  0.000000000  0.032524165     0.000000000  0.000000000  0.250000000

  Length of vectors
     0.030635617  0.030751915  0.032524165

  Shift w.r.t. Gamma in fractional coordinates (k-lattice)
     0.500000000  0.500000000  0.500000000

 TETIRR: Found    864 inequivalent tetrahedra from      864
 
 Subroutine IBZKPT returns following result:
 ===========================================
 
 Found    144 irreducible k-points:
 
 Following reciprocal coordinates:
            Coordinates               Weight
  0.083333  0.083333  0.125000      1.000000
  0.250000  0.083333  0.125000      1.000000
  0.416667  0.083333  0.125000      1.000000
 -0.416667  0.083333  0.125000      1.000000
 -0.250000  0.083333  0.125000      1.000000
 -0.083333  0.083333  0.125000      1.000000
  0.083333  0.250000  0.125000      1.000000
  0.250000  0.250000  0.125000      1.000000
  0.416667  0.250000  0.125000      1.000000
 -0.416667  0.250000  0.125000      1.000000
 -0.250000  0.250000  0.125000      1.000000
 -0.083333  0.250000  0.125000      1.000000
  0.083333  0.416667  0.125000      1.000000
  0.250000  0.416667  0.125000      1.000000
  0.416667  0.416667  0.125000      1.000000
 -0.416667  0.416667  0.125000      1.000000
 -0.250000  0.416667  0.125000      1.000000
 -0.083333  0.416667  0.125000      1.000000
  0.083333 -0.416667  0.125000      1.000000
  0.250000 -0.416667  0.125000      1.000000
  0.416667 -0.416667  0.125000      1.000000
 -0.416667 -0.416667  0.125000      1.000000
 -0.250000 -0.416667  0.125000      1.000000
 -0.083333 -0.416667  0.125000      1.000000
  0.083333 -0.250000  0.125000      1.000000
  0.250000 -0.250000  0.125000      1.000000
  0.416667 -0.250000  0.125000      1.000000
 -0.416667 -0.250000  0.125000      1.000000
 -0.250000 -0.250000  0.125000      1.000000
 -0.083333 -0.250000  0.125000      1.000000
  0.083333 -0.083333  0.125000      1.000000
  0.250000 -0.083333  0.125000      1.000000
  0.416667 -0.083333  0.125000      1.000000
 -0.416667 -0.083333  0.125000      1.000000
 -0.250000 -0.083333  0.125000      1.000000
 -0.083333 -0.083333  0.125000      1.000000
  0.083333  0.083333  0.375000      1.000000
  0.250000  0.083333  0.375000      1.000000
  0.416667  0.083333  0.375000      1.000000
 -0.416667  0.083333  0.375000      1.000000
 -0.250000  0.083333  0.375000      1.000000
 -0.083333  0.083333  0.375000      1.000000
  0.083333  0.250000  0.375000      1.000000
  0.250000  0.250000  0.375000      1.000000
  0.416667  0.250000  0.375000      1.000000
 -0.416667  0.250000  0.375000      1.000000
 -0.250000  0.250000  0.375000      1.000000
 -0.083333  0.250000  0.375000      1.000000
  0.083333  0.416667  0.375000      1.000000
  0.250000  0.416667  0.375000      1.000000
  0.416667  0.416667  0.375000      1.000000
 -0.416667  0.416667  0.375000      1.000000
 -0.250000  0.416667  0.375000      1.000000
 -0.083333  0.416667  0.375000      1.000000
  0.083333 -0.416667  0.375000      1.000000
  0.250000 -0.416667  0.375000      1.000000
  0.416667 -0.416667  0.375000      1.000000
 -0.416667 -0.416667  0.375000      1.000000
 -0.250000 -0.416667  0.375000      1.000000
 -0.083333 -0.416667  0.375000      1.000000
  0.083333 -0.250000  0.375000      1.000000
  0.250000 -0.250000  0.375000      1.000000
  0.416667 -0.250000  0.375000      1.000000
 -0.416667 -0.250000  0.375000      1.000000
 -0.250000 -0.250000  0.375000      1.000000
 -0.083333 -0.250000  0.375000      1.000000
  0.083333 -0.083333  0.375000      1.000000
  0.250000 -0.083333  0.375000      1.000000
  0.416667 -0.083333  0.375000      1.000000
 -0.416667 -0.083333  0.375000      1.000000
 -0.250000 -0.083333  0.375000      1.000000
 -0.083333 -0.083333  0.375000      1.000000
  0.083333  0.083333 -0.375000      1.000000
  0.250000  0.083333 -0.375000      1.000000
  0.416667  0.083333 -0.375000      1.000000
 -0.416667  0.083333 -0.375000      1.000000
 -0.250000  0.083333 -0.375000      1.000000
 -0.083333  0.083333 -0.375000      1.000000
  0.083333  0.250000 -0.375000      1.000000
  0.250000  0.250000 -0.375000      1.000000
  0.416667  0.250000 -0.375000      1.000000
 -0.416667  0.250000 -0.375000      1.000000
 -0.250000  0.250000 -0.375000      1.000000
 -0.083333  0.250000 -0.375000      1.000000
  0.083333  0.416667 -0.375000      1.000000
  0.250000  0.416667 -0.375000      1.000000
  0.416667  0.416667 -0.375000      1.000000
 -0.416667  0.416667 -0.375000      1.000000
 -0.250000  0.416667 -0.375000      1.000000
 -0.083333  0.416667 -0.375000      1.000000
  0.083333 -0.416667 -0.375000      1.000000
  0.250000 -0.416667 -0.375000      1.000000
  0.416667 -0.416667 -0.375000      1.000000
 -0.416667 -0.416667 -0.375000      1.000000
 -0.250000 -0.416667 -0.375000      1.000000
 -0.083333 -0.416667 -0.375000      1.000000
  0.083333 -0.250000 -0.375000      1.000000
  0.250000 -0.250000 -0.375000      1.000000
  0.416667 -0.250000 -0.375000      1.000000
 -0.416667 -0.250000 -0.375000      1.000000
 -0.250000 -0.250000 -0.375000      1.000000
 -0.083333 -0.250000 -0.375000      1.000000
  0.083333 -0.083333 -0.375000      1.000000
  0.250000 -0.083333 -0.375000      1.000000
  0.416667 -0.083333 -0.375000      1.000000
 -0.416667 -0.083333 -0.375000      1.000000
 -0.250000 -0.083333 -0.375000      1.000000
 -0.083333 -0.083333 -0.375000      1.000000
  0.083333  0.083333 -0.125000      1.000000
  0.250000  0.083333 -0.125000      1.000000
  0.416667  0.083333 -0.125000      1.000000
 -0.416667  0.083333 -0.125000      1.000000
 -0.250000  0.083333 -0.125000      1.000000
 -0.083333  0.083333 -0.125000      1.000000
  0.083333  0.250000 -0.125000      1.000000
  0.250000  0.250000 -0.125000      1.000000
  0.416667  0.250000 -0.125000      1.000000
 -0.416667  0.250000 -0.125000      1.000000
 -0.250000  0.250000 -0.125000      1.000000
 -0.083333  0.250000 -0.125000      1.000000
  0.083333  0.416667 -0.125000      1.000000
  0.250000  0.416667 -0.125000      1.000000
  0.416667  0.416667 -0.125000      1.000000
 -0.416667  0.416667 -0.125000      1.000000
 -0.250000  0.416667 -0.125000      1.000000
 -0.083333  0.416667 -0.125000      1.000000
  0.083333 -0.416667 -0.125000      1.000000
  0.250000 -0.416667 -0.125000      1.000000
  0.416667 -0.416667 -0.125000      1.000000
 -0.416667 -0.416667 -0.125000      1.000000
 -0.250000 -0.416667 -0.125000      1.000000
 -0.083333 -0.416667 -0.125000      1.000000
  0.083333 -0.250000 -0.125000      1.000000
  0.250000 -0.250000 -0.125000      1.000000
  0.416667 -0.250000 -0.125000      1.000000
 -0.416667 -0.250000 -0.125000      1.000000
 -0.250000 -0.250000 -0.125000      1.000000
 -0.083333 -0.250000 -0.125000      1.000000
  0.083333 -0.083333 -0.125000      1.000000
  0.250000 -0.083333 -0.125000      1.000000
  0.416667 -0.083333 -0.125000      1.000000
 -0.416667 -0.083333 -0.125000      1.000000
 -0.250000 -0.083333 -0.125000      1.000000
 -0.083333 -0.083333 -0.125000      1.000000
 
 Following cartesian coordinates:
            Coordinates               Weight
  0.015318  0.015376  0.016262      1.000000
  0.045953  0.015376  0.016262      1.000000
  0.076589  0.015376  0.016262      1.000000
 -0.076589  0.015376  0.016262      1.000000
 -0.045953  0.015376  0.016262      1.000000
 -0.015318  0.015376  0.016262      1.000000
  0.015318  0.046128  0.016262      1.000000
  0.045953  0.046128  0.016262      1.000000
  0.076589  0.046128  0.016262      1.000000
 -0.076589  0.046128  0.016262      1.000000
 -0.045953  0.046128  0.016262      1.000000
 -0.015318  0.046128  0.016262      1.000000
  0.015318  0.076880  0.016262      1.000000
  0.045953  0.076880  0.016262      1.000000
  0.076589  0.076880  0.016262      1.000000
 -0.076589  0.076880  0.016262      1.000000
 -0.045953  0.076880  0.016262      1.000000
 -0.015318  0.076880  0.016262      1.000000
  0.015318 -0.076880  0.016262      1.000000
  0.045953 -0.076880  0.016262      1.000000
  0.076589 -0.076880  0.016262      1.000000
 -0.076589 -0.076880  0.016262      1.000000
 -0.045953 -0.076880  0.016262      1.000000
 -0.015318 -0.076880  0.016262      1.000000
  0.015318 -0.046128  0.016262      1.000000
  0.045953 -0.046128  0.016262      1.000000
  0.076589 -0.046128  0.016262      1.000000
 -0.076589 -0.046128  0.016262      1.000000
 -0.045953 -0.046128  0.016262      1.000000
 -0.015318 -0.046128  0.016262      1.000000
  0.015318 -0.015376  0.016262      1.000000
  0.045953 -0.015376  0.016262      1.000000
  0.076589 -0.015376  0.016262      1.000000
 -0.076589 -0.015376  0.016262      1.000000
 -0.045953 -0.015376  0.016262      1.000000
 -0.015318 -0.015376  0.016262      1.000000
  0.015318  0.015376  0.048786      1.000000
  0.045953  0.015376  0.048786      1.000000
  0.076589  0.015376  0.048786      1.000000
 -0.076589  0.015376  0.048786      1.000000
 -0.045953  0.015376  0.048786      1.000000
 -0.015318  0.015376  0.048786      1.000000
  0.015318  0.046128  0.048786      1.000000
  0.045953  0.046128  0.048786      1.000000
  0.076589  0.046128  0.048786      1.000000
 -0.076589  0.046128  0.048786      1.000000
 -0.045953  0.046128  0.048786      1.000000
 -0.015318  0.046128  0.048786      1.000000
  0.015318  0.076880  0.048786      1.000000
  0.045953  0.076880  0.048786      1.000000
  0.076589  0.076880  0.048786      1.000000
 -0.076589  0.076880  0.048786      1.000000
 -0.045953  0.076880  0.048786      1.000000
 -0.015318  0.076880  0.048786      1.000000
  0.015318 -0.076880  0.048786      1.000000
  0.045953 -0.076880  0.048786      1.000000
  0.076589 -0.076880  0.048786      1.000000
 -0.076589 -0.076880  0.048786      1.000000
 -0.045953 -0.076880  0.048786      1.000000
 -0.015318 -0.076880  0.048786      1.000000
  0.015318 -0.046128  0.048786      1.000000
  0.045953 -0.046128  0.048786      1.000000
  0.076589 -0.046128  0.048786      1.000000
 -0.076589 -0.046128  0.048786      1.000000
 -0.045953 -0.046128  0.048786      1.000000
 -0.015318 -0.046128  0.048786      1.000000
  0.015318 -0.015376  0.048786      1.000000
  0.045953 -0.015376  0.048786      1.000000
  0.076589 -0.015376  0.048786      1.000000
 -0.076589 -0.015376  0.048786      1.000000
 -0.045953 -0.015376  0.048786      1.000000
 -0.015318 -0.015376  0.048786      1.000000
  0.015318  0.015376 -0.048786      1.000000
  0.045953  0.015376 -0.048786      1.000000
  0.076589  0.015376 -0.048786      1.000000
 -0.076589  0.015376 -0.048786      1.000000
 -0.045953  0.015376 -0.048786      1.000000
 -0.015318  0.015376 -0.048786      1.000000
  0.015318  0.046128 -0.048786      1.000000
  0.045953  0.046128 -0.048786      1.000000
  0.076589  0.046128 -0.048786      1.000000
 -0.076589  0.046128 -0.048786      1.000000
 -0.045953  0.046128 -0.048786      1.000000
 -0.015318  0.046128 -0.048786      1.000000
  0.015318  0.076880 -0.048786      1.000000
  0.045953  0.076880 -0.048786      1.000000
  0.076589  0.076880 -0.048786      1.000000
 -0.076589  0.076880 -0.048786      1.000000
 -0.045953  0.076880 -0.048786      1.000000
 -0.015318  0.076880 -0.048786      1.000000
  0.015318 -0.076880 -0.048786      1.000000
  0.045953 -0.076880 -0.048786      1.000000
  0.076589 -0.076880 -0.048786      1.000000
 -0.076589 -0.076880 -0.048786      1.000000
 -0.045953 -0.076880 -0.048786      1.000000
 -0.015318 -0.076880 -0.048786      1.000000
  0.015318 -0.046128 -0.048786      1.000000
  0.045953 -0.046128 -0.048786      1.000000
  0.076589 -0.046128 -0.048786      1.000000
 -0.076589 -0.046128 -0.048786      1.000000
 -0.045953 -0.046128 -0.048786      1.000000
 -0.015318 -0.046128 -0.048786      1.000000
  0.015318 -0.015376 -0.048786      1.000000
  0.045953 -0.015376 -0.048786      1.000000
  0.076589 -0.015376 -0.048786      1.000000
 -0.076589 -0.015376 -0.048786      1.000000
 -0.045953 -0.015376 -0.048786      1.000000
 -0.015318 -0.015376 -0.048786      1.000000
  0.015318  0.015376 -0.016262      1.000000
  0.045953  0.015376 -0.016262      1.000000
  0.076589  0.015376 -0.016262      1.000000
 -0.076589  0.015376 -0.016262      1.000000
 -0.045953  0.015376 -0.016262      1.000000
 -0.015318  0.015376 -0.016262      1.000000
  0.015318  0.046128 -0.016262      1.000000
  0.045953  0.046128 -0.016262      1.000000
  0.076589  0.046128 -0.016262      1.000000
 -0.076589  0.046128 -0.016262      1.000000
 -0.045953  0.046128 -0.016262      1.000000
 -0.015318  0.046128 -0.016262      1.000000
  0.015318  0.076880 -0.016262      1.000000
  0.045953  0.076880 -0.016262      1.000000
  0.076589  0.076880 -0.016262      1.000000
 -0.076589  0.076880 -0.016262      1.000000
 -0.045953  0.076880 -0.016262      1.000000
 -0.015318  0.076880 -0.016262      1.000000
  0.015318 -0.076880 -0.016262      1.000000
  0.045953 -0.076880 -0.016262      1.000000
  0.076589 -0.076880 -0.016262      1.000000
 -0.076589 -0.076880 -0.016262      1.000000
 -0.045953 -0.076880 -0.016262      1.000000
 -0.015318 -0.076880 -0.016262      1.000000
  0.015318 -0.046128 -0.016262      1.000000
  0.045953 -0.046128 -0.016262      1.000000
  0.076589 -0.046128 -0.016262      1.000000
 -0.076589 -0.046128 -0.016262      1.000000
 -0.045953 -0.046128 -0.016262      1.000000
 -0.015318 -0.046128 -0.016262      1.000000
  0.015318 -0.015376 -0.016262      1.000000
  0.045953 -0.015376 -0.016262      1.000000
  0.076589 -0.015376 -0.016262      1.000000
 -0.076589 -0.015376 -0.016262      1.000000
 -0.045953 -0.015376 -0.016262      1.000000
 -0.015318 -0.015376 -0.016262      1.000000
 


--------------------------------------------------------------------------------------------------------




 Dimension of arrays:
   k-points           NKPTS =    144   k-points in BZ     NKDIM =    144   number of bands    NBANDS=    108
   number of dos      NEDOS =    301   number of ions     NIONS =     20
   non local maximal  LDIM  =      6   non local SUM 2l+1 LMDIM =     18
   total plane-waves  NPLWV =  31360
   max r-space proj   IRMAX =      1   max aug-charges    IRDMAX=  10967
   dimension x,y,z NGX =    28 NGY =   28 NGZ =   40
   dimension x,y,z NGXF=    56 NGYF=   56 NGZF=   80
   support grid    NGXF=    56 NGYF=   56 NGZF=   80
   ions per type =               4   4  12
   NGX,Y,Z   is equivalent  to a cutoff of   8.56,  8.59,  8.65 a.u.
   NGXF,Y,Z  is equivalent  to a cutoff of  17.11, 17.18, 17.30 a.u.

 SYSTEM =  PrNiO3                                  
 POSCAR =  PrNiO3                                  

 Startparameter for this run:
   NWRITE =      2    write-flag & timer
   PREC   = normal    normal or accurate (medium, high low for compatibility)
   ISTART =      1    job   : 0-new  1-cont  2-samecut
   ICHARG =      1    charge: 1-file 2-atom 10-const
   ISPIN  =      1    spin polarized calculation?
   LNONCOLLINEAR =      F non collinear calculations
   LSORBIT =      F    spin-orbit coupling
   INIWAV =      1    electr: 0-lowe 1-rand  2-diag
   LASPH  =      F    aspherical Exc in radial PAW
 Electronic Relaxation 1
   ENCUT  =  400.0 eV  29.40 Ry    5.42 a.u.   8.87  8.84 12.53*2*pi/ulx,y,z
   ENINI  =  400.0     initial cutoff
   ENAUG  =  703.4 eV  augmentation charge cutoff
   NELM   =     60;   NELMIN= 10; NELMDL=  0     # of ELM steps 
   EDIFF  = 0.1E-09   stopping-criterion for ELM
   LREAL  =      F    real-space projection
   NLSPLINE    = F    spline interpolate recip. space projectors
   LCOMPAT=      F    compatible to vasp.4.4
   GGA_COMPAT  = T    GGA compatible to vasp.4.4-vasp.4.6
   LMAXPAW     = -100 max onsite density
   LMAXMIX     =    6 max onsite mixed and CHGCAR
   VOSKOWN=      0    Vosko Wilk Nusair interpolation
   ROPT   =    0.00000   0.00000   0.00000
 Ionic relaxation
   EDIFFG = 0.1E-08   stopping-criterion for IOM
   NSW    =      0    number of steps for IOM
   NBLOCK =      1;   KBLOCK =      1    inner block; outer block 
   IBRION =     -1    ionic relax: 0-MD 1-quasi-New 2-CG
   NFREE  =      0    steps in history (QN), initial steepest desc. (CG)
   ISIF   =      2    stress and relaxation
   IWAVPR =     10    prediction:  0-non 1-charg 2-wave 3-comb
   ISYM   =     -1    0-nonsym 1-usesym 2-fastsym
   LCORR  =      T    Harris-Foulkes like correction to forces

   POTIM  = 0.5000    time-step for ionic-motion
   TEIN   =    0.0    initial temperature
   TEBEG  =    0.0;   TEEND  =   0.0 temperature during run
   SMASS  =  -3.00    Nose mass-parameter (am)
   estimated Nose-frequenzy (Omega)   =  0.10E-29 period in steps = 0.13E+47 mass=  -0.676E-27a.u.
   SCALEE = 1.0000    scale energy and forces
   NPACO  =    256;   APACO  = 10.0  distance and # of slots for P.C.
   PSTRESS=    0.0 pullay stress

  Mass of Ions in am
   POMASS = 140.91 58.69 16.00
  Ionic Valenz
   ZVAL   =  11.00 16.00  6.00
  Atomic Wigner-Seitz radii
   RWIGS  =  -1.00 -1.00 -1.00
  virtual crystal weights 
   VCA    =   1.00  1.00  1.00
   NELECT =     180.0000    total number of electrons
   NUPDOWN=      -1.0000    fix difference up-down

 DOS related values:
   EMIN   =  10.00;   EMAX   =-10.00  energy-range for DOS
   EFERMI =   0.00;   METHOD = LEGACY      
   ISMEAR =    -5;   SIGMA  =   0.20  broadening in eV -4-tet -1-fermi 0-gaus

 Electronic relaxation 2 (details)
   IALGO  =     38    algorithm
   LDIAG  =      T    sub-space diagonalisation (order eigenvalues)
   LSUBROT=      F    optimize rotation matrix (better conditioning)
   TURBO    =      0    0=normal 1=particle mesh
   IRESTART =      0    0=no restart 2=restart with 2 vectors
   NREBOOT  =      0    no. of reboots
   NMIN     =      0    reboot dimension
   EREF     =   0.00    reference energy to select bands
   IMIX   =      4    mixing-type and parameters
     AMIX     =   0.40;   BMIX     =  1.00
     AMIX_MAG =   1.60;   BMIX_MAG =  1.00
     AMIN     =   0.10
     WC   =   100.;   INIMIX=   1;  MIXPRE=   1;  MAXMIX= -45

 Intra band minimization:
   WEIMIN = 0.0000     energy-eigenvalue tresh-hold
   EBREAK =  0.23E-12  absolut break condition
   DEPER  =   0.30     relativ break condition  

   TIME   =   0.40     timestep for ELM

  volume/ion in A,a.u.               =      11.33        76.47
  Fermi-wavevector in a.u.,A,eV,Ry     =   1.516078  2.864972 31.272880  2.298492
  Thomas-Fermi vector in A             =   2.625516

 Write flags
   LWAVE        =      T    write WAVECAR
   LDOWNSAMPLE  =      F    k-point downsampling of WAVECAR
   LCHARG       =      T    write CHGCAR
   LVTOT        =      F    write LOCPOT, total local potential
   LVHAR        =      F    write LOCPOT, Hartree potential only
   LELF         =      F    write electronic localiz. function (ELF)
   LORBIT       =     14    0 simple, 1 ext, 2 COOP (PROOUT), +10 PAW based schemes


 Dipole corrections
   LMONO  =      F    monopole corrections only (constant potential shift)
   LDIPOL =      F    correct potential (dipole corrections)
   IDIPOL =      0    1-x, 2-y, 3-z, 4-all directions 
   EPSILON=  1.0000000 bulk dielectric constant

 Exchange correlation treatment:
   GGA     =    --    GGA type
   LEXCH   =     8    internal setting for exchange type
   LIBXC   =     F    Libxc                    
   VOSKOWN =     0    Vosko Wilk Nusair interpolation
   LHFCALC =     F    Hartree Fock is set to
   LHFONE  =     F    Hartree Fock one center treatment
   AEXX    =    0.0000 exact exchange contribution

 Linear response parameters
   LEPSILON=     F    determine dielectric tensor
   LRPA    =     F    only Hartree local field effects (RPA)
   LNABLA  =     F    use nabla operator in PAW spheres
   LVEL    =     F    velocity operator in full k-point grid
   CSHIFT  =0.1000    complex shift for real part using Kramers Kronig
   OMEGAMAX=  -1.0    maximum frequency
   DEG_THRESHOLD= 0.2000000E-02 threshold for treating states as degnerate
   RTIME   =   -0.100 relaxation time in fs
  (WPLASMAI=    0.000 imaginary part of plasma frequency in eV, 0.658/RTIME)
   DFIELD  = 0.0000000 0.0000000 0.0000000 field for delta impulse in time

  Optional k-point grid parameters
   LKPOINTS_OPT  =     F    use optional k-point grid
   KPOINTS_OPT_MODE=     1    mode for optional k-point grid

 Orbital magnetization related:
   ORBITALMAG=     F  switch on orbital magnetization
   LCHIMAG   =     F  perturbation theory with respect to B field
   DQ        =  0.001000  dq finite difference perturbation B field
   LLRAUG    =     F  two centre corrections for induced B field
   LBONE     =     F  B-component reconstruction in AE one-centre
   LVGVCALC  =     T  calculate vGv susceptibility
   LVGVAPPL  =     F  apply vGv susceptibility instead of pGv for G=0

 Random number generation:
   RANDOM_GENERATOR = DEFAULT
   PCG_SEED         = not used


--------------------------------------------------------------------------------------------------------


 Static calculation
 charge density and potential will be updated during run
 non-spin polarized calculation
 Variant of blocked Davidson
 Davidson routine will perform the subspace rotation
 perform sub-space diagonalisation
    after iterative eigenvector-optimisation
 modified Broyden-mixing scheme, WC =      100.0
 initial mixing is a Kerker type mixing with AMIX =  0.4000 and BMIX =      1.0000
 Hartree-type preconditioning will be used
 using additional bands           18
 reciprocal scheme for non local part
 use partial core corrections
 calculate Harris-corrections to forces   (improved forces if not selfconsistent)
 use gradient corrections 
 use of overlap-Matrix (Vanderbilt PP)
 Fermi weights with tetrahedron method with Bloechl corrections


--------------------------------------------------------------------------------------------------------


  energy-cutoff  :      400.00
  volume of cell :      226.64
      direct lattice vectors                 reciprocal lattice vectors
     5.440290838 -0.000000000  0.000000000     0.183813702 -0.000000000  0.000000000
     0.000000000  5.419716597  0.000000000     0.000000000  0.184511493 -0.000000000
     0.000000000  0.000000000  7.686592486    -0.000000000  0.000000000  0.130096659

  length of vectors
     5.440290838  5.419716597  7.686592486     0.183813702  0.184511493  0.130096659



 old parameters found on file WAVECAR:
  energy-cutoff  :      400.00
  volume of cell :      226.64
      direct lattice vectors                 reciprocal lattice vectors
     5.440290838 -0.000000000  0.000000000     0.183813702 -0.000000000  0.000000000
     0.000000000  5.419716597  0.000000000     0.000000000  0.184511493 -0.000000000
     0.000000000  0.000000000  7.686592486    -0.000000000  0.000000000  0.130096659

  length of vectors


 k-points in units of 2pi/SCALE and weight: Automatic kpoint scheme                 
   0.01531781  0.01537596  0.01626208       0.007
   0.04595343  0.01537596  0.01626208       0.007
   0.07658904  0.01537596  0.01626208       0.007
  -0.07658904  0.01537596  0.01626208       0.007
  -0.04595343  0.01537596  0.01626208       0.007
  -0.01531781  0.01537596  0.01626208       0.007
   0.01531781  0.04612787  0.01626208       0.007
   0.04595343  0.04612787  0.01626208       0.007
   0.07658904  0.04612787  0.01626208       0.007
  -0.07658904  0.04612787  0.01626208       0.007
  -0.04595343  0.04612787  0.01626208       0.007
  -0.01531781  0.04612787  0.01626208       0.007
   0.01531781  0.07687979  0.01626208       0.007
   0.04595343  0.07687979  0.01626208       0.007
   0.07658904  0.07687979  0.01626208       0.007
  -0.07658904  0.07687979  0.01626208       0.007
  -0.04595343  0.07687979  0.01626208       0.007
  -0.01531781  0.07687979  0.01626208       0.007
   0.01531781 -0.07687979  0.01626208       0.007
   0.04595343 -0.07687979  0.01626208       0.007
   0.07658904 -0.07687979  0.01626208       0.007
  -0.07658904 -0.07687979  0.01626208       0.007
  -0.04595343 -0.07687979  0.01626208       0.007
  -0.01531781 -0.07687979  0.01626208       0.007
   0.01531781 -0.04612787  0.01626208       0.007
   0.04595343 -0.04612787  0.01626208       0.007
   0.07658904 -0.04612787  0.01626208       0.007
  -0.07658904 -0.04612787  0.01626208       0.007
  -0.04595343 -0.04612787  0.01626208       0.007
  -0.01531781 -0.04612787  0.01626208       0.007
   0.01531781 -0.01537596  0.01626208       0.007
   0.04595343 -0.01537596  0.01626208       0.007
   0.07658904 -0.01537596  0.01626208       0.007
  -0.07658904 -0.01537596  0.01626208       0.007
  -0.04595343 -0.01537596  0.01626208       0.007
  -0.01531781 -0.01537596  0.01626208       0.007
   0.01531781  0.01537596  0.04878625       0.007
   0.04595343  0.01537596  0.04878625       0.007
   0.07658904  0.01537596  0.04878625       0.007
  -0.07658904  0.01537596  0.04878625       0.007
  -0.04595343  0.01537596  0.04878625       0.007
  -0.01531781  0.01537596  0.04878625       0.007
   0.01531781  0.04612787  0.04878625       0.007
   0.04595343  0.04612787  0.04878625       0.007
   0.07658904  0.04612787  0.04878625       0.007
  -0.07658904  0.04612787  0.04878625       0.007
  -0.04595343  0.04612787  0.04878625       0.007
  -0.01531781  0.04612787  0.04878625       0.007
   0.01531781  0.07687979  0.04878625       0.007
   0.04595343  0.07687979  0.04878625       0.007
   0.07658904  0.07687979  0.04878625       0.007
  -0.07658904  0.07687979  0.04878625       0.007
  -0.04595343  0.07687979  0.04878625       0.007
  -0.01531781  0.07687979  0.04878625       0.007
   0.01531781 -0.07687979  0.04878625       0.007
   0.04595343 -0.07687979  0.04878625       0.007
   0.07658904 -0.07687979  0.04878625       0.007
  -0.07658904 -0.07687979  0.04878625       0.007
  -0.04595343 -0.07687979  0.04878625       0.007
  -0.01531781 -0.07687979  0.04878625       0.007
   0.01531781 -0.04612787  0.04878625       0.007
   0.04595343 -0.04612787  0.04878625       0.007
   0.07658904 -0.04612787  0.04878625       0.007
  -0.07658904 -0.04612787  0.04878625       0.007
  -0.04595343 -0.04612787  0.04878625       0.007
  -0.01531781 -0.04612787  0.04878625       0.007
   0.01531781 -0.01537596  0.04878625       0.007
   0.04595343 -0.01537596  0.04878625       0.007
   0.07658904 -0.01537596  0.04878625       0.007
  -0.07658904 -0.01537596  0.04878625       0.007
  -0.04595343 -0.01537596  0.04878625       0.007
  -0.01531781 -0.01537596  0.04878625       0.007
   0.01531781  0.01537596 -0.04878625       0.007
   0.04595343  0.01537596 -0.04878625       0.007
   0.07658904  0.01537596 -0.04878625       0.007
  -0.07658904  0.01537596 -0.04878625       0.007
  -0.04595343  0.01537596 -0.04878625       0.007
  -0.01531781  0.01537596 -0.04878625       0.007
   0.01531781  0.04612787 -0.04878625       0.007
   0.04595343  0.04612787 -0.04878625       0.007
   0.07658904  0.04612787 -0.04878625       0.007
  -0.07658904  0.04612787 -0.04878625       0.007
  -0.04595343  0.04612787 -0.04878625       0.007
  -0.01531781  0.04612787 -0.04878625       0.007
   0.01531781  0.07687979 -0.04878625       0.007
   0.04595343  0.07687979 -0.04878625       0.007
   0.07658904  0.07687979 -0.04878625       0.007
  -0.07658904  0.07687979 -0.04878625       0.007
  -0.04595343  0.07687979 -0.04878625       0.007
  -0.01531781  0.07687979 -0.04878625       0.007
   0.01531781 -0.07687979 -0.04878625       0.007
   0.04595343 -0.07687979 -0.04878625       0.007
   0.07658904 -0.07687979 -0.04878625       0.007
  -0.07658904 -0.07687979 -0.04878625       0.007
  -0.04595343 -0.07687979 -0.04878625       0.007
  -0.01531781 -0.07687979 -0.04878625       0.007
   0.01531781 -0.04612787 -0.04878625       0.007
   0.04595343 -0.04612787 -0.04878625       0.007
   0.07658904 -0.04612787 -0.04878625       0.007
  -0.07658904 -0.04612787 -0.04878625       0.007
  -0.04595343 -0.04612787 -0.04878625       0.007
  -0.01531781 -0.04612787 -0.04878625       0.007
   0.01531781 -0.01537596 -0.04878625       0.007
   0.04595343 -0.01537596 -0.04878625       0.007
   0.07658904 -0.01537596 -0.04878625       0.007
  -0.07658904 -0.01537596 -0.04878625       0.007
  -0.04595343 -0.01537596 -0.04878625       0.007
  -0.01531781 -0.01537596 -0.04878625       0.007
   0.01531781  0.01537596 -0.01626208       0.007
   0.04595343  0.01537596 -0.01626208       0.007
   0.07658904  0.01537596 -0.01626208       0.007
  -0.07658904  0.01537596 -0.01626208       0.007
  -0.04595343  0.01537596 -0.01626208       0.007
  -0.01531781  0.01537596 -0.01626208       0.007
   0.01531781  0.04612787 -0.01626208       0.007
   0.04595343  0.04612787 -0.01626208       0.007
   0.07658904  0.04612787 -0.01626208       0.007
  -0.07658904  0.04612787 -0.01626208       0.007
  -0.04595343  0.04612787 -0.01626208       0.007
  -0.01531781  0.04612787 -0.01626208       0.007
   0.01531781  0.07687979 -0.01626208       0.007
   0.04595343  0.07687979 -0.01626208       0.007
   0.07658904  0.07687979 -0.01626208       0.007
  -0.07658904  0.07687979 -0.01626208       0.007
  -0.04595343  0.07687979 -0.01626208       0.007
  -0.01531781  0.07687979 -0.01626208       0.007
   0.01531781 -0.07687979 -0.01626208       0.007
   0.04595343 -0.07687979 -0.01626208       0.007
   0.07658904 -0.07687979 -0.01626208       0.007
  -0.07658904 -0.07687979 -0.01626208       0.007
  -0.04595343 -0.07687979 -0.01626208       0.007
  -0.01531781 -0.07687979 -0.01626208       0.007
   0.01531781 -0.04612787 -0.01626208       0.007
   0.04595343 -0.04612787 -0.01626208       0.007
   0.07658904 -0.04612787 -0.01626208       0.007
  -0.07658904 -0.04612787 -0.01626208       0.007
  -0.04595343 -0.04612787 -0.01626208       0.007
  -0.01531781 -0.04612787 -0.01626208       0.007
   0.01531781 -0.01537596 -0.01626208       0.007
   0.04595343 -0.01537596 -0.01626208       0.007
   0.07658904 -0.01537596 -0.01626208       0.007
  -0.07658904 -0.01537596 -0.01626208       0.007
  -0.04595343 -0.01537596 -0.01626208       0.007
  -0.01531781 -0.01537596 -0.01626208       0.007

 k-points in reciprocal lattice and weights: Automatic kpoint scheme                 
   0.08333333  0.08333333  0.12500000       0.007
   0.25000000  0.08333333  0.12500000       0.007
   0.41666667  0.08333333  0.12500000       0.007
  -0.41666667  0.08333333  0.12500000       0.007
  -0.25000000  0.08333333  0.12500000       0.007
  -0.08333333  0.08333333  0.12500000       0.007
   0.08333333  0.25000000  0.12500000       0.007
   0.25000000  0.25000000  0.12500000       0.007
   0.41666667  0.25000000  0.12500000       0.007
  -0.41666667  0.25000000  0.12500000       0.007
  -0.25000000  0.25000000  0.12500000       0.007
  -0.08333333  0.25000000  0.12500000       0.007
   0.08333333  0.41666667  0.12500000       0.007
   0.25000000  0.41666667  0.12500000       0.007
   0.41666667  0.41666667  0.12500000       0.007
  -0.41666667  0.41666667  0.12500000       0.007
  -0.25000000  0.41666667  0.12500000       0.007
  -0.08333333  0.41666667  0.12500000       0.007
   0.08333333 -0.41666667  0.12500000       0.007
   0.25000000 -0.41666667  0.12500000       0.007
   0.41666667 -0.41666667  0.12500000       0.007
  -0.41666667 -0.41666667  0.12500000       0.007
  -0.25000000 -0.41666667  0.12500000       0.007
  -0.08333333 -0.41666667  0.12500000       0.007
   0.08333333 -0.25000000  0.12500000       0.007
   0.25000000 -0.25000000  0.12500000       0.007
   0.41666667 -0.25000000  0.12500000       0.007
  -0.41666667 -0.25000000  0.12500000       0.007
  -0.25000000 -0.25000000  0.12500000       0.007
  -0.08333333 -0.25000000  0.12500000       0.007
   0.08333333 -0.08333333  0.12500000       0.007
   0.25000000 -0.08333333  0.12500000       0.007
   0.41666667 -0.08333333  0.12500000       0.007
  -0.41666667 -0.08333333  0.12500000       0.007
  -0.25000000 -0.08333333  0.12500000       0.007
  -0.08333333 -0.08333333  0.12500000       0.007
   0.08333333  0.08333333  0.37500000       0.007
   0.25000000  0.08333333  0.37500000       0.007
   0.41666667  0.08333333  0.37500000       0.007
  -0.41666667  0.08333333  0.37500000       0.007
  -0.25000000  0.08333333  0.37500000       0.007
  -0.08333333  0.08333333  0.37500000       0.007
   0.08333333  0.25000000  0.37500000       0.007
   0.25000000  0.25000000  0.37500000       0.007
   0.41666667  0.25000000  0.37500000       0.007
  -0.41666667  0.25000000  0.37500000       0.007
  -0.25000000  0.25000000  0.37500000       0.007
  -0.08333333  0.25000000  0.37500000       0.007
   0.08333333  0.41666667  0.37500000       0.007
   0.25000000  0.41666667  0.37500000       0.007
   0.41666667  0.41666667  0.37500000       0.007
  -0.41666667  0.41666667  0.37500000       0.007
  -0.25000000  0.41666667  0.37500000       0.007
  -0.08333333  0.41666667  0.37500000       0.007
   0.08333333 -0.41666667  0.37500000       0.007
   0.25000000 -0.41666667  0.37500000       0.007
   0.41666667 -0.41666667  0.37500000       0.007
  -0.41666667 -0.41666667  0.37500000       0.007
  -0.25000000 -0.41666667  0.37500000       0.007
  -0.08333333 -0.41666667  0.37500000       0.007
   0.08333333 -0.25000000  0.37500000       0.007
   0.25000000 -0.25000000  0.37500000       0.007
   0.41666667 -0.25000000  0.37500000       0.007
  -0.41666667 -0.25000000  0.37500000       0.007
  -0.25000000 -0.25000000  0.37500000       0.007
  -0.08333333 -0.25000000  0.37500000       0.007
   0.08333333 -0.08333333  0.37500000       0.007
   0.25000000 -0.08333333  0.37500000       0.007
   0.41666667 -0.08333333  0.37500000       0.007
  -0.41666667 -0.08333333  0.37500000       0.007
  -0.25000000 -0.08333333  0.37500000       0.007
  -0.08333333 -0.08333333  0.37500000       0.007
   0.08333333  0.08333333 -0.37500000       0.007
   0.25000000  0.08333333 -0.37500000       0.007
   0.41666667  0.08333333 -0.37500000       0.007
  -0.41666667  0.08333333 -0.37500000       0.007
  -0.25000000  0.08333333 -0.37500000       0.007
  -0.08333333  0.08333333 -0.37500000       0.007
   0.08333333  0.25000000 -0.37500000       0.007
   0.25000000  0.25000000 -0.37500000       0.007
   0.41666667  0.25000000 -0.37500000       0.007
  -0.41666667  0.25000000 -0.37500000       0.007
  -0.25000000  0.25000000 -0.37500000       0.007
  -0.08333333  0.25000000 -0.37500000       0.007
   0.08333333  0.41666667 -0.37500000       0.007
   0.25000000  0.41666667 -0.37500000       0.007
   0.41666667  0.41666667 -0.37500000       0.007
  -0.41666667  0.41666667 -0.37500000       0.007
  -0.25000000  0.41666667 -0.37500000       0.007
  -0.08333333  0.41666667 -0.37500000       0.007
   0.08333333 -0.41666667 -0.37500000       0.007
   0.25000000 -0.41666667 -0.37500000       0.007
   0.41666667 -0.41666667 -0.37500000       0.007
  -0.41666667 -0.41666667 -0.37500000       0.007
  -0.25000000 -0.41666667 -0.37500000       0.007
  -0.08333333 -0.41666667 -0.37500000       0.007
   0.08333333 -0.25000000 -0.37500000       0.007
   0.25000000 -0.25000000 -0.37500000       0.007
   0.41666667 -0.25000000 -0.37500000       0.007
  -0.41666667 -0.25000000 -0.37500000       0.007
  -0.25000000 -0.25000000 -0.37500000       0.007
  -0.08333333 -0.25000000 -0.37500000       0.007
   0.08333333 -0.08333333 -0.37500000       0.007
   0.25000000 -0.08333333 -0.37500000       0.007
   0.41666667 -0.08333333 -0.37500000       0.007
  -0.41666667 -0.08333333 -0.37500000       0.007
  -0.25000000 -0.08333333 -0.37500000       0.007
  -0.08333333 -0.08333333 -0.37500000       0.007
   0.08333333  0.08333333 -0.12500000       0.007
   0.25000000  0.08333333 -0.12500000       0.007
   0.41666667  0.08333333 -0.12500000       0.007
  -0.41666667  0.08333333 -0.12500000       0.007
  -0.25000000  0.08333333 -0.12500000       0.007
  -0.08333333  0.08333333 -0.12500000       0.007
   0.08333333  0.25000000 -0.12500000       0.007
   0.25000000  0.25000000 -0.12500000       0.007
   0.41666667  0.25000000 -0.12500000       0.007
  -0.41666667  0.25000000 -0.12500000       0.007
  -0.25000000  0.25000000 -0.12500000       0.007
  -0.08333333  0.25000000 -0.12500000       0.007
   0.08333333  0.41666667 -0.12500000       0.007
   0.25000000  0.41666667 -0.12500000       0.007
   0.41666667  0.41666667 -0.12500000       0.007
  -0.41666667  0.41666667 -0.12500000       0.007
  -0.25000000  0.41666667 -0.12500000       0.007
  -0.08333333  0.41666667 -0.12500000       0.007
   0.08333333 -0.41666667 -0.12500000       0.007
   0.25000000 -0.41666667 -0.12500000       0.007
   0.41666667 -0.41666667 -0.12500000       0.007
  -0.41666667 -0.41666667 -0.12500000       0.007
  -0.25000000 -0.41666667 -0.12500000       0.007
  -0.08333333 -0.41666667 -0.12500000       0.007
   0.08333333 -0.25000000 -0.12500000       0.007
   0.25000000 -0.25000000 -0.12500000       0.007
   0.41666667 -0.25000000 -0.12500000       0.007
  -0.41666667 -0.25000000 -0.12500000       0.007
  -0.25000000 -0.25000000 -0.12500000       0.007
  -0.08333333 -0.25000000 -0.12500000       0.007
   0.08333333 -0.08333333 -0.12500000       0.007
   0.25000000 -0.08333333 -0.12500000       0.007
   0.41666667 -0.08333333 -0.12500000       0.007
  -0.41666667 -0.08333333 -0.12500000       0.007
  -0.25000000 -0.08333333 -0.12500000       0.007
  -0.08333333 -0.08333333 -0.12500000       0.007

 position of ions in fractional coordinates (direct lattice) 
   0.99250048  0.03600951  0.25000000
   0.00749952  0.96399049  0.75000000
   0.49250048  0.46399049  0.75000000
   0.50749952  0.53600951  0.25000000
   0.50000000  0.00000000  0.00000000
   0.00000000  0.50000000  0.00000000
   0.50000000  0.00000000  0.50000000
   0.00000000  0.50000000  0.50000000
   0.72445968  0.28299979  0.03794195
   0.71769533  0.27623543  0.46205805
   0.27554032  0.71700024  0.96205808
   0.28230467  0.72376460  0.53794192
   0.21769533  0.22376457  0.96205808
   0.22445968  0.21700021  0.53794192
   0.78230467  0.77623540  0.03794195
   0.77554032  0.78299976  0.46205805
   0.56829709  0.00630675  0.74661782
   0.06829712  0.49369325  0.24661782
   0.93170291  0.50630678  0.75338218
   0.43170288  0.99369322  0.25338218

 position of ions in cartesian coordinates  (Angst):
   5.39949127  0.19516135  1.92164812
   0.04079956  5.22455525  5.76494436
   2.67934586  2.51469695  5.76494436
   2.76094498  2.90501965  1.92164812
   2.72014542 -0.00000000  0.00000000
   0.00000000  2.70985830  0.00000000
   2.72014542 -0.00000000  3.84329624
   0.00000000  2.70985830  3.84329624
   3.94127138  1.53377863  0.29164428
   3.90447131  1.49711773  3.55165194
   1.49901946  3.88593813  7.39494841
   1.53581953  3.92259903  4.13494032
   1.18432589  1.21274057  7.39494841
   1.22112596  1.17607967  4.13494032
   4.25596495  4.20697587  0.29164428
   4.21916488  4.24363677  3.55165194
   3.09170145  0.03418081  5.73894693
   0.37155619  2.67567749  1.89565069
   5.06873481  2.74403927  5.79094180
   2.34858923  5.38553563  1.94764555



--------------------------------------------------------------------------------------------------------


 k-point   1 :   0.0833 0.0833 0.1250  plane waves:    4121
 k-point   2 :   0.2500 0.0833 0.1250  plane waves:    4122
 k-point   3 :   0.4167 0.0833 0.1250  plane waves:    4115
 k-point   4 :  -0.4167 0.0833 0.1250  plane waves:    4115
 k-point   5 :  -0.2500 0.0833 0.1250  plane waves:    4122
 k-point   6 :  -0.0833 0.0833 0.1250  plane waves:    4121
 k-point   7 :   0.0833 0.2500 0.1250  plane waves:    4117
 k-point   8 :   0.2500 0.2500 0.1250  plane waves:    4108
 k-point   9 :   0.4167 0.2500 0.1250  plane waves:    4121
 k-point  10 :  -0.4167 0.2500 0.1250  plane waves:    4121
 k-point  11 :  -0.2500 0.2500 0.1250  plane waves:    4108
 k-point  12 :  -0.0833 0.2500 0.1250  plane waves:    4117
 k-point  13 :   0.0833 0.4167 0.1250  plane waves:    4109
 k-point  14 :   0.2500 0.4167 0.1250  plane waves:    4126
 k-point  15 :   0.4167 0.4167 0.1250  plane waves:    4128
 k-point  16 :  -0.4167 0.4167 0.1250  plane waves:    4128
 k-point  17 :  -0.2500 0.4167 0.1250  plane waves:    4126
 k-point  18 :  -0.0833 0.4167 0.1250  plane waves:    4109
 k-point  19 :   0.0833-0.4167 0.1250  plane waves:    4109
 k-point  20 :   0.2500-0.4167 0.1250  plane waves:    4126
 k-point  21 :   0.4167-0.4167 0.1250  plane waves:    4128
 k-point  22 :  -0.4167-0.4167 0.1250  plane waves:    4128
 k-point  23 :  -0.2500-0.4167 0.1250  plane waves:    4126
 k-point  24 :  -0.0833-0.4167 0.1250  plane waves:    4109
 k-point  25 :   0.0833-0.2500 0.1250  plane waves:    4117
 k-point  26 :   0.2500-0.2500 0.1250  plane waves:    4108
 k-point  27 :   0.4167-0.2500 0.1250  plane waves:    4121
 k-point  28 :  -0.4167-0.2500 0.1250  plane waves:    4121
 k-point  29 :  -0.2500-0.2500 0.1250  plane waves:    4108
 k-point  30 :  -0.0833-0.2500 0.1250  plane waves:    4117
 k-point  31 :   0.0833-0.0833 0.1250  plane waves:    4121
 k-point  32 :   0.2500-0.0833 0.1250  plane waves:    4122
 k-point  33 :   0.4167-0.0833 0.1250  plane waves:    4115
 k-point  34 :  -0.4167-0.0833 0.1250  plane waves:    4115
 k-point  35 :  -0.2500-0.0833 0.1250  plane waves:    4122
 k-point  36 :  -0.0833-0.0833 0.1250  plane waves:    4121
 k-point  37 :   0.0833 0.0833 0.3750  plane waves:    4106
 k-point  38 :   0.2500 0.0833 0.3750  plane waves:    4113
 k-point  39 :   0.4167 0.0833 0.3750  plane waves:    4112
 k-point  40 :  -0.4167 0.0833 0.3750  plane waves:    4112
 k-point  41 :  -0.2500 0.0833 0.3750  plane waves:    4113
 k-point  42 :  -0.0833 0.0833 0.3750  plane waves:    4106
 k-point  43 :   0.0833 0.2500 0.3750  plane waves:    4112
 k-point  44 :   0.2500 0.2500 0.3750  plane waves:    4112
 k-point  45 :   0.4167 0.2500 0.3750  plane waves:    4123
 k-point  46 :  -0.4167 0.2500 0.3750  plane waves:    4123
 k-point  47 :  -0.2500 0.2500 0.3750  plane waves:    4112
 k-point  48 :  -0.0833 0.2500 0.3750  plane waves:    4112
 k-point  49 :   0.0833 0.4167 0.3750  plane waves:    4108
 k-point  50 :   0.2500 0.4167 0.3750  plane waves:    4117
 k-point  51 :   0.4167 0.4167 0.3750  plane waves:    4136
 k-point  52 :  -0.4167 0.4167 0.3750  plane waves:    4136
 k-point  53 :  -0.2500 0.4167 0.3750  plane waves:    4117
 k-point  54 :  -0.0833 0.4167 0.3750  plane waves:    4108
 k-point  55 :   0.0833-0.4167 0.3750  plane waves:    4108
 k-point  56 :   0.2500-0.4167 0.3750  plane waves:    4117
 k-point  57 :   0.4167-0.4167 0.3750  plane waves:    4136
 k-point  58 :  -0.4167-0.4167 0.3750  plane waves:    4136
 k-point  59 :  -0.2500-0.4167 0.3750  plane waves:    4117
 k-point  60 :  -0.0833-0.4167 0.3750  plane waves:    4108
 k-point  61 :   0.0833-0.2500 0.3750  plane waves:    4112
 k-point  62 :   0.2500-0.2500 0.3750  plane waves:    4112
 k-point  63 :   0.4167-0.2500 0.3750  plane waves:    4123
 k-point  64 :  -0.4167-0.2500 0.3750  plane waves:    4123
 k-point  65 :  -0.2500-0.2500 0.3750  plane waves:    4112
 k-point  66 :  -0.0833-0.2500 0.3750  plane waves:    4112
 k-point  67 :   0.0833-0.0833 0.3750  plane waves:    4106
 k-point  68 :   0.2500-0.0833 0.3750  plane waves:    4113
 k-point  69 :   0.4167-0.0833 0.3750  plane waves:    4112
 k-point  70 :  -0.4167-0.0833 0.3750  plane waves:    4112
 k-point  71 :  -0.2500-0.0833 0.3750  plane waves:    4113
 k-point  72 :  -0.0833-0.0833 0.3750  plane waves:    4106
 k-point  73 :   0.0833 0.0833-0.3750  plane waves:    4106
 k-point  74 :   0.2500 0.0833-0.3750  plane waves:    4113
 k-point  75 :   0.4167 0.0833-0.3750  plane waves:    4112
 k-point  76 :  -0.4167 0.0833-0.3750  plane waves:    4112
 k-point  77 :  -0.2500 0.0833-0.3750  plane waves:    4113
 k-point  78 :  -0.0833 0.0833-0.3750  plane waves:    4106
 k-point  79 :   0.0833 0.2500-0.3750  plane waves:    4112
 k-point  80 :   0.2500 0.2500-0.3750  plane waves:    4112
 k-point  81 :   0.4167 0.2500-0.3750  plane waves:    4123
 k-point  82 :  -0.4167 0.2500-0.3750  plane waves:    4123
 k-point  83 :  -0.2500 0.2500-0.3750  plane waves:    4112
 k-point  84 :  -0.0833 0.2500-0.3750  plane waves:    4112
 k-point  85 :   0.0833 0.4167-0.3750  plane waves:    4108
 k-point  86 :   0.2500 0.4167-0.3750  plane waves:    4117
 k-point  87 :   0.4167 0.4167-0.3750  plane waves:    4136
 k-point  88 :  -0.4167 0.4167-0.3750  plane waves:    4136
 k-point  89 :  -0.2500 0.4167-0.3750  plane waves:    4117
 k-point  90 :  -0.0833 0.4167-0.3750  plane waves:    4108
 k-point  91 :   0.0833-0.4167-0.3750  plane waves:    4108
 k-point  92 :   0.2500-0.4167-0.3750  plane waves:    4117
 k-point  93 :   0.4167-0.4167-0.3750  plane waves:    4136
 k-point  94 :  -0.4167-0.4167-0.3750  plane waves:    4136
 k-point  95 :  -0.2500-0.4167-0.3750  plane waves:    4117
 k-point  96 :  -0.0833-0.4167-0.3750  plane waves:    4108
 k-point  97 :   0.0833-0.2500-0.3750  plane waves:    4112
 k-point  98 :   0.2500-0.2500-0.3750  plane waves:    4112
 k-point  99 :   0.4167-0.2500-0.3750  plane waves:    4123
 k-point 100 :  -0.4167-0.2500-0.3750  plane waves:    4123
 k-point 101 :  -0.2500-0.2500-0.3750  plane waves:    4112
 k-point 102 :  -0.0833-0.2500-0.3750  plane waves:    4112
 k-point 103 :   0.0833-0.0833-0.3750  plane waves:    4106
 k-point 104 :   0.2500-0.0833-0.3750  plane waves:    4113
 k-point 105 :   0.4167-0.0833-0.3750  plane waves:    4112
 k-point 106 :  -0.4167-0.0833-0.3750  plane waves:    4112
 k-point 107 :  -0.2500-0.0833-0.3750  plane waves:    4113
 k-point 108 :  -0.0833-0.0833-0.3750  plane waves:    4106
 k-point 109 :   0.0833 0.0833-0.1250  plane waves:    4121
 k-point 110 :   0.2500 0.0833-0.1250  plane waves:    4122
 k-point 111 :   0.4167 0.0833-0.1250  plane waves:    4115
 k-point 112 :  -0.4167 0.0833-0.1250  plane waves:    4115
 k-point 113 :  -0.2500 0.0833-0.1250  plane waves:    4122
 k-point 114 :  -0.0833 0.0833-0.1250  plane waves:    4121
 k-point 115 :   0.0833 0.2500-0.1250  plane waves:    4117
 k-point 116 :   0.2500 0.2500-0.1250  plane waves:    4108
 k-point 117 :   0.4167 0.2500-0.1250  plane waves:    4121
 k-point 118 :  -0.4167 0.2500-0.1250  plane waves:    4121
 k-point 119 :  -0.2500 0.2500-0.1250  plane waves:    4108
 k-point 120 :  -0.0833 0.2500-0.1250  plane waves:    4117
 k-point 121 :   0.0833 0.4167-0.1250  plane waves:    4109
 k-point 122 :   0.2500 0.4167-0.1250  plane waves:    4126
 k-point 123 :   0.4167 0.4167-0.1250  plane waves:    4128
 k-point 124 :  -0.4167 0.4167-0.1250  plane waves:    4128
 k-point 125 :  -0.2500 0.4167-0.1250  plane waves:    4126
 k-point 126 :  -0.0833 0.4167-0.1250  plane waves:    4109
 k-point 127 :   0.0833-0.4167-0.1250  plane waves:    4109
 k-point 128 :   0.2500-0.4167-0.1250  plane waves:    4126
 k-point 129 :   0.4167-0.4167-0.1250  plane waves:    4128
 k-point 130 :  -0.4167-0.4167-0.1250  plane waves:    4128
 k-point 131 :  -0.2500-0.4167-0.1250  plane waves:    4126
 k-point 132 :  -0.0833-0.4167-0.1250  plane waves:    4109
 k-point 133 :   0.0833-0.2500-0.1250  plane waves:    4117
 k-point 134 :   0.2500-0.2500-0.1250  plane waves:    4108
 k-point 135 :   0.4167-0.2500-0.1250  plane waves:    4121
 k-point 136 :  -0.4167-0.2500-0.1250  plane waves:    4121
 k-point 137 :  -0.2500-0.2500-0.1250  plane waves:    4108
 k-point 138 :  -0.0833-0.2500-0.1250  plane waves:    4117
 k-point 139 :   0.0833-0.0833-0.1250  plane waves:    4121
 k-point 140 :   0.2500-0.0833-0.1250  plane waves:    4122
 k-point 141 :   0.4167-0.0833-0.1250  plane waves:    4115
 k-point 142 :  -0.4167-0.0833-0.1250  plane waves:    4115
 k-point 143 :  -0.2500-0.0833-0.1250  plane waves:    4122
 k-point 144 :  -0.0833-0.0833-0.1250  plane waves:    4121

 maximum and minimum number of plane-waves per node :      4136     4106

 maximum number of plane-waves:      4136
 maximum index in each direction: 
   IXMAX=    9   IYMAX=    9   IZMAX=   12
   IXMIN=   -9   IYMIN=   -9   IZMIN=  -12


 serial   3D FFT for wavefunctions
 parallel 3D FFT for charge:
    minimum data exchange during FFTs selected (reduces bandwidth)


 total amount of memory used by VASP MPI-rank0   568790. kBytes
=======================================================================

   base      :      30000. kBytes
   nonl-proj :     258615. kBytes
   fftplans  :       2286. kBytes
   grid      :       5356. kBytes
   one-center:        311. kBytes
   wavefun   :     272222. kBytes

     INWAV:  cpu time      1.0306: real time      1.0320
 Broyden mixing: mesh for mixing (old mesh)
   NGX = 17   NGY = 17   NGZ = 25
  (NGX  = 56   NGY  = 56   NGZ  = 80)
  gives a total of   7225 points

 initial charge density was supplied:
 number of electron     179.9998631 magnetization 
 keeping initial charge density in first step


--------------------------------------------------------------------------------------------------------


 Maximum index for augmentation-charges         2637 (set IRDMAX)


--------------------------------------------------------------------------------------------------------


 First call to EWALD:  gamma=   0.291
 Maximum number of real-space cells 3x 3x 2
 Maximum number of reciprocal cells 3x 2x 3

    FEWALD:  cpu time      0.0020: real time      0.0020


--------------------------------------- Ionic step        1  -------------------------------------------




--------------------------------------- Iteration      1(   1)  ---------------------------------------


    POTLOK:  cpu time      0.1256: real time      0.0151
    SETDIJ:  cpu time      0.0316: real time      0.0035
     EDDAV:  cpu time     82.9495: real time     10.7889
 BZINTS: Fermi energy:    5.023103;  180.000000 electrons
         Band energy:-0.204653E+04;  BLOECHL correction:   -0.075860
       DOS:  cpu time      0.1185: real time      0.1185
    CHARGE:  cpu time      2.6260: real time      0.3306
    MIXING:  cpu time      0.0063: real time      0.0008
    --------------------------------------------
      LOOP:  cpu time     85.8575: real time     11.2573

 eigenvalue-minimisations  : 38328
 total energy-change (2. order) :-0.1425592E+03  (-0.2674088E-07)
 number of electron     179.9998632 magnetization 
 augmentation part       46.7661899 magnetization 

 Broyden mixing:
  rms(total) = 0.19043E-01    rms(broyden)= 0.18754E-01
  rms(prec ) = 0.22683E-01
  weight for this iteration     100.00

 Free energy of the ion-electron system (eV)
  ---------------------------------------------------
  alpha Z        PSCENC =      1340.43062464
  Ewald energy   TEWEN  =    -15631.08598208
  -Hartree energ DENC   =     -6941.01441203
  -exchange      EXHF   =         0.00000000
  -V(xc)+E(xc)   XCENC  =       810.04821522
  PAW double counting   =     22298.22705766   -22815.27663856
  entropy T*S    EENTRO =         0.00000000
  eigenvalues    EBANDS =     -2046.52510500
  atomic energy  EATOM  =     22842.63706183
  Solvation  Ediel_sol  =         0.00000000
  ---------------------------------------------------
  free energy    TOTEN  =      -142.55917831 eV

  energy without entropy =     -142.55917831  energy(sigma->0) =     -142.55917831


--------------------------------------------------------------------------------------------------------




--------------------------------------- Iteration      1(   2)  ---------------------------------------


    POTLOK:  cpu time      0.1200: real time      0.0136
    SETDIJ:  cpu time      0.0067: real time      0.0026
     EDDAV:  cpu time    105.8409: real time     13.6968
 BZINTS: Fermi energy:    5.022925;  180.000000 electrons
         Band energy:-0.204648E+04;  BLOECHL correction:   -0.076848
       DOS:  cpu time      0.1163: real time      0.1163
    CHARGE:  cpu time      2.6526: real time      0.3327
    MIXING:  cpu time      0.0011: real time      0.0011
    --------------------------------------------
      LOOP:  cpu time    108.7375: real time     14.1629

 eigenvalue-minimisations  : 51816
 total energy-change (2. order) :-0.5664642E-03  (-0.1987625E-03)
 number of electron     179.9998632 magnetization 
 augmentation part       46.7652599 magnetization 

 Broyden mixing:
  rms(total) = 0.17556E-01    rms(broyden)= 0.17466E-01
  rms(prec ) = 0.25225E-01
  weight for this iteration     100.00

 eigenvalues of (default mixing * dielectric matrix)
  average eigenvalue GAMMA=   0.5422
  0.5422

 Free energy of the ion-electron system (eV)
  ---------------------------------------------------
  alpha Z        PSCENC =      1340.43062464
  Ewald energy   TEWEN  =    -15631.08598208
  -Hartree energ DENC   =     -6941.04990374
  -exchange      EXHF   =         0.00000000
  -V(xc)+E(xc)   XCENC  =       810.04869331
  PAW double counting   =     22298.29724303   -22815.35305678
  entropy T*S    EENTRO =         0.00000000
  eigenvalues    EBANDS =     -2046.48442500
  atomic energy  EATOM  =     22842.63706183
  Solvation  Ediel_sol  =         0.00000000
  ---------------------------------------------------
  free energy    TOTEN  =      -142.55974477 eV

  energy without entropy =     -142.55974477  energy(sigma->0) =     -142.55974477


--------------------------------------------------------------------------------------------------------




--------------------------------------- Iteration      1(   3)  ---------------------------------------


    POTLOK:  cpu time      0.0967: real time      0.0139
    SETDIJ:  cpu time      0.0303: real time      0.0023
     EDDAV:  cpu time     87.6464: real time     11.4568
 BZINTS: Fermi energy:    5.023486;  180.000000 electrons
         Band energy:-0.204653E+04;  BLOECHL correction:   -0.076843
       DOS:  cpu time      0.1211: real time      0.1211
    CHARGE:  cpu time      2.6637: real time      0.3366
    MIXING:  cpu time      0.0009: real time      0.0009
    --------------------------------------------
      LOOP:  cpu time     90.5591: real time     11.9317

 eigenvalue-minimisations  : 41548
 total energy-change (2. order) :-0.2352128E-03  (-0.5525917E-03)
 number of electron     179.9998632 magnetization 
 augmentation part       46.7657152 magnetization 

 Broyden mixing:
  rms(total) = 0.37083E-01    rms(broyden)= 0.36915E-01
  rms(prec ) = 0.54731E-01
  weight for this iteration     100.00

 eigenvalues of (default mixing * dielectric matrix)
  average eigenvalue GAMMA=   0.5380
  0.9362  0.1398

 Free energy of the ion-electron system (eV)
  ---------------------------------------------------
  alpha Z        PSCENC =      1340.43062464
  Ewald energy   TEWEN  =    -15631.08598208
  -Hartree energ DENC   =     -6941.01020400
  -exchange      EXHF   =         0.00000000
  -V(xc)+E(xc)   XCENC  =       810.04806561
  PAW double counting   =     22298.18413894   -22815.23418366
  entropy T*S    EENTRO =         0.00000000
  eigenvalues    EBANDS =     -2046.52950128
  atomic energy  EATOM  =     22842.63706183
  Solvation  Ediel_sol  =         0.00000000
  ---------------------------------------------------
  free energy    TOTEN  =      -142.55997998 eV

  energy without entropy =     -142.55997998  energy(sigma->0) =     -142.55997998


--------------------------------------------------------------------------------------------------------




--------------------------------------- Iteration      1(   4)  ---------------------------------------


    POTLOK:  cpu time      0.0972: real time      0.0132
    SETDIJ:  cpu time      0.0304: real time      0.0024
     EDDAV:  cpu time     95.1512: real time     12.3251
 BZINTS: Fermi energy:    5.022784;  180.000000 electrons
         Band energy:-0.204656E+04;  BLOECHL correction:   -0.076763
       DOS:  cpu time      0.1201: real time      0.1201
    CHARGE:  cpu time      2.6258: real time      0.3369
    MIXING:  cpu time      0.0291: real time      0.0011
    --------------------------------------------
      LOOP:  cpu time     98.0537: real time     12.7988

 eigenvalue-minimisations  : 44908
 total energy-change (2. order) : 0.4513848E-03  (-0.4128655E-03)
 number of electron     179.9998632 magnetization 
 augmentation part       46.7663684 magnetization 

 Broyden mixing:
  rms(total) = 0.17734E-01    rms(broyden)= 0.17499E-01
  rms(prec ) = 0.26515E-01
  weight for this iteration     100.00

 eigenvalues of (default mixing * dielectric matrix)
  average eigenvalue GAMMA=   0.4468
  1.0275  0.1935  0.1193

 Free energy of the ion-electron system (eV)
  ---------------------------------------------------
  alpha Z        PSCENC =      1340.43062464
  Ewald energy   TEWEN  =    -15631.08598208
  -Hartree energ DENC   =     -6940.98696899
  -exchange      EXHF   =         0.00000000
  -V(xc)+E(xc)   XCENC  =       810.04763002
  PAW double counting   =     22298.12590789   -22815.17228291
  entropy T*S    EENTRO =         0.00000000
  eigenvalues    EBANDS =     -2046.55551902
  atomic energy  EATOM  =     22842.63706183
  Solvation  Ediel_sol  =         0.00000000
  ---------------------------------------------------
  free energy    TOTEN  =      -142.55952860 eV

  energy without entropy =     -142.55952860  energy(sigma->0) =     -142.55952860


--------------------------------------------------------------------------------------------------------




--------------------------------------- Iteration      1(   5)  ---------------------------------------


    POTLOK:  cpu time      0.0972: real time      0.0133
    SETDIJ:  cpu time      0.0304: real time      0.0024
     EDDAV:  cpu time     89.5990: real time     11.5927
[...]
     37     -10.9598      2.00000
     38     -10.6105      2.00000
     39     -10.4932      2.00000
     40     -10.3868      2.00000
     41      -1.9188      2.00000
     42      -1.3786      2.00000
     43      -0.8604      2.00000
     44      -0.5668      2.00000
     45      -0.2558      2.00000
     46      -0.2498      2.00000
     47      -0.2136      2.00000
     48       0.0781      2.00000
     49       0.1106      2.00000
     50       0.2136      2.00000
     51       0.3359      2.00000
     52       0.4320      2.00000
     53       0.4768      2.00000
     54       0.4938      2.00000
     55       0.6230      2.00000
     56       0.6825      2.00000
     57       0.8534      2.00000
     58       0.9464      2.00000
     59       1.2681      2.00000
     60       1.3775      2.00000
     61       1.4593      2.00000
     62       2.0046      2.00000
     63       2.1971      2.00000
     64       2.2962      2.00000
     65       2.4253      2.00000
     66       2.6037      2.00000
     67       2.6913      2.00000
     68       2.7231      2.00000
     69       2.8101      2.00000
     70       2.8219      2.00000
     71       2.8924      2.00000
     72       3.0147      2.00000
     73       3.1932      2.00000
     74       3.2565      2.00000
     75       3.3383      2.00000
     76       3.4050      2.00000
     77       3.4746      2.00000
     78       3.5475      2.00000
     79       3.6006      2.00000
     80       3.7409      2.00000
     81       3.8242      2.00000
     82       3.9913      2.00000
     83       4.0724      2.00000
     84       4.1942      2.00000
     85       4.2166      2.00000
     86       4.4338      2.00000
     87       4.4535      2.00000
     88       4.5253      2.00000
     89       4.6911      2.00000
     90       4.7553      2.00000
     91       4.8131      2.19705
     92       5.0303      0.16181
     93       5.8527      0.00000
     94       7.0831      0.00000
     95       7.2009      0.00000
     96       7.2510      0.00000
     97       8.6517      0.00000
     98       9.0417      0.00000
     99       9.7120      0.00000
    100       9.7472      0.00000
    101       9.9658      0.00000
    102      10.1453      0.00000
    103      10.5404      0.00000
    104      10.6525      0.00000
    105      10.8273      0.00000
    106      10.8831      0.00000
    107      10.9269      0.00000
    108      10.9837      0.00000


--------------------------------------------------------------------------------------------------------


 soft charge-density along one line, spin component           1
         0         1         2         3         4         5         6         7         8         9
 total charge-density along one line

 pseudopotential strength for first ion, spin component:           1
 -9.949  -6.613   0.002   0.000  -0.001  -0.003  -0.000   0.002
 -6.613   0.475   0.001  -0.000  -0.001  -0.000   0.000   0.000
  0.002   0.001 -12.063  -0.000   0.007   4.357   0.000  -0.011
  0.000  -0.000  -0.000 -12.065  -0.000   0.000   4.361   0.000
 -0.001  -0.001   0.007  -0.000 -12.057  -0.011   0.000   4.348
 -0.003  -0.000   4.357   0.000  -0.011   8.289  -0.000   0.006
 -0.000   0.000   0.000   4.361   0.000  -0.000   8.287  -0.000
  0.002   0.000  -0.011   0.000   4.348   0.006  -0.000   8.294
  0.003   0.004  -0.000  -0.000   0.001   0.004   0.000  -0.002
 -0.000  -0.000  -0.000   0.001  -0.000   0.000  -0.002   0.000
 -0.001  -0.002  -0.000   0.000   0.000   0.002   0.000   0.003
 -0.000  -0.000  -0.000  -0.000   0.000   0.000   0.006  -0.000
  0.001   0.002  -0.000   0.000  -0.000   0.003  -0.000  -0.003
  0.005   0.005  -0.001  -0.000   0.001   0.005   0.000  -0.003
 -0.000  -0.000  -0.000   0.001  -0.000   0.000  -0.002   0.000
 -0.002  -0.002  -0.000   0.000   0.000   0.002   0.000   0.003
 -0.000  -0.000  -0.000  -0.001   0.000   0.000   0.007  -0.000
  0.002   0.002  -0.001   0.000  -0.000   0.004  -0.000  -0.004
 total augmentation occupancy for first ion, spin component:           1
  1.997  -0.031  -0.000  -0.000   0.000  -0.001  -0.000   0.000   0.004  -0.000  -0.003  -0.000   0.002  -0.007   0.000   0.004
 -0.031   0.622  -0.011  -0.000   0.007   0.006   0.000  -0.005   0.147  -0.002  -0.073  -0.001   0.079  -0.082   0.002   0.041
 -0.000  -0.011   2.010  -0.000   0.001  -0.027   0.000  -0.004   0.037   0.002   0.017  -0.000   0.026  -0.011  -0.001  -0.004
 -0.000  -0.000  -0.000   2.010  -0.000   0.000  -0.026   0.000  -0.000   0.004   0.000   0.052  -0.003   0.000  -0.001  -0.000
  0.000   0.007   0.001  -0.000   2.010  -0.004   0.000  -0.029  -0.000  -0.000   0.045  -0.003  -0.050   0.001  -0.000  -0.015
 -0.001   0.006  -0.027   0.000  -0.004   0.046  -0.000   0.005  -0.084  -0.004  -0.044   0.001  -0.074   0.046   0.002   0.024
 -0.000   0.000   0.000  -0.026   0.000  -0.000   0.044  -0.000   0.001  -0.023  -0.001  -0.128   0.005  -0.000   0.012   0.000
  0.000  -0.005  -0.004   0.000  -0.029   0.005  -0.000   0.049  -0.020   0.001  -0.104   0.005   0.123   0.012  -0.000   0.057
  0.004   0.147   0.037  -0.000  -0.000  -0.084   0.001  -0.020   2.608   0.002   0.193  -0.024  -0.535  -1.449  -0.001  -0.108
 -0.000  -0.002   0.002   0.004  -0.000  -0.004  -0.023   0.001   0.002   3.143   0.002   0.644  -0.007  -0.001  -1.781  -0.001
 -0.003  -0.073   0.017   0.000   0.045  -0.044  -0.001  -0.104   0.193   0.002   2.313  -0.019  -0.264  -0.109  -0.001  -1.277
 -0.000  -0.001  -0.000   0.052  -0.003   0.001  -0.128   0.005  -0.024   0.644  -0.019   2.990   0.002   0.014  -0.370   0.010
  0.002   0.079   0.026  -0.003  -0.050  -0.074   0.005   0.123  -0.535  -0.007  -0.264   0.002   3.180   0.306   0.003   0.152
 -0.007  -0.082  -0.011   0.000   0.001   0.046  -0.000   0.012  -1.449  -0.001  -0.109   0.014   0.306   0.812   0.000   0.062
  0.000   0.002  -0.001  -0.001  -0.000   0.002   0.012  -0.000  -0.001  -1.781  -0.001  -0.370   0.003   0.000   1.018   0.000
  0.004   0.041  -0.004  -0.000  -0.015   0.024   0.000   0.057  -0.108  -0.001  -1.277   0.010   0.152   0.062   0.000   0.711
  0.000   0.001   0.000  -0.016   0.001  -0.000   0.070  -0.003   0.014  -0.370   0.010  -1.694  -0.001  -0.008   0.215  -0.006
 -0.003  -0.044  -0.007   0.001   0.016   0.042  -0.003  -0.068   0.306   0.003   0.152  -0.001  -1.804  -0.177  -0.001  -0.089


------------------------ aborting loop because EDIFF is reached ----------------------------------------



 optimized coefficients for linear combined projectors, energy window     -62.80     15.34
 species Pr NT=   1 L=   0     0.993    -0.073
 species Pr NT=   1 L=   1     0.974    -0.185
 species Pr NT=   1 L=   2     0.745     0.947
 species Ni NT=   2 L=   1     0.999    -0.084
 species Ni NT=   2 L=   2     0.952     0.973
 species Ni NT=   2 L=   0     0.493     0.938
 species O  NT=   3 L=   0     0.901    -0.971
 species O  NT=   3 L=   1     0.852    -0.939



 total charge

# of ion       s       p       d       tot
------------------------------------------
    1        2.059   5.838   0.698   8.594
    2        2.059   5.838   0.698   8.594
    3        2.059   5.838   0.698   8.594
    4        2.059   5.838   0.698   8.594
    5        0.244   6.244   7.851  14.339
    6        0.266   6.286   7.840  14.391
    7        0.266   6.285   7.840  14.391
    8        0.244   6.244   7.851  14.339
    9        1.590   3.444   0.000   5.034
   10        1.590   3.443   0.000   5.033
   11        1.590   3.444   0.000   5.034
   12        1.590   3.443   0.000   5.033
   13        1.590   3.443   0.000   5.034
   14        1.590   3.444   0.000   5.034
   15        1.590   3.443   0.000   5.034
   16        1.590   3.444   0.000   5.034
   17        1.591   3.444   0.000   5.035
   18        1.591   3.444   0.000   5.035
   19        1.591   3.444   0.000   5.035
   20        1.591   3.444   0.000   5.035
--------------------------------------------------
tot         28.343  89.733  34.172 152.248

    CHARGE:  cpu time      2.6168: real time      0.3294
    FORLOC:  cpu time      0.0007: real time      0.0007
    FORNL :  cpu time     11.3770: real time     11.3202
    STRESS:  cpu time     35.0518: real time      9.7632
    FORCOR:  cpu time      0.0984: real time      0.0144
    FORHAR:  cpu time      0.0612: real time      0.0053
    MIXING:  cpu time      0.0035: real time      0.0035
    OFIELD:  cpu time      0.0000: real time      0.0000

  FORCE on cell =-STRESS in cart. coord.  units (eV):
  Direction    XX          YY          ZZ          XY          YZ          ZX
  --------------------------------------------------------------------------------------
  Alpha Z  1340.43062  1340.43062  1340.43062
  Ewald   -5161.49270 -5285.33195 -5184.31018     0.00000    -0.00000    -8.85749
  Hartree  2329.52481  2262.62532  2348.86853    -0.37521     0.00110    -5.49102
  E(xc)    -995.93323  -996.18391  -996.16688     0.00124    -0.00004    -0.00729
  Local    -579.36459  -392.46212  -574.21108     0.62797    -0.00043    14.17488
  n-local  -769.57406  -768.90326  -767.26208    -0.03363     0.00127    -0.01443
  augment   807.97285   809.30271   807.51085    -0.17583     0.00157     0.05232
  Kinetic  3021.37956  3023.40823  3017.56456    -0.18768    -0.00309     0.14234
  Fock        0.00000     0.00000     0.00000     0.00000     0.00000     0.00000
  -------------------------------------------------------------------------------------
  Total      -7.05673    -7.11435    -7.57566    -0.14314     0.00037    -0.00069
  in kB     -49.88634   -50.29367   -53.55482    -1.01189     0.00265    -0.00489
  external pressure =      -51.24 kB  Pullay stress =        0.00 kB


 VOLUME and BASIS-vectors are now :
 -----------------------------------------------------------------------------
  energy-cutoff  :      400.00
  volume of cell :      226.64
      direct lattice vectors                 reciprocal lattice vectors
     5.440290838 -0.000000000  0.000000000     0.183813702 -0.000000000  0.000000000
     0.000000000  5.419716597  0.000000000     0.000000000  0.184511493 -0.000000000
     0.000000000  0.000000000  7.686592486    -0.000000000  0.000000000  0.130096659

  length of vectors
     5.440290838  5.419716597  7.686592486     0.183813702  0.184511493  0.130096659


 FORCES acting on ions
    electron-ion (+dipol)            ewald-force                    non-local-force                 convergence-correction
 -----------------------------------------------------------------------------------------------
   -.271E+02 0.533E+02 0.699E-01   0.267E+02 -.527E+02 -.687E-01   0.379E+00 -.631E+00 -.668E-02   -.761E-09 -.839E-09 0.770E-08
   0.271E+02 -.533E+02 -.699E-01   -.267E+02 0.527E+02 0.687E-01   -.379E+00 0.631E+00 0.668E-02   0.794E-09 0.791E-09 -.771E-08
   -.271E+02 -.533E+02 0.691E-01   0.267E+02 0.527E+02 -.687E-01   0.379E+00 0.636E+00 -.632E-02   -.161E-09 0.866E-09 -.722E-08
   0.271E+02 0.533E+02 -.691E-01   -.267E+02 -.527E+02 0.687E-01   -.379E+00 -.636E+00 0.632E-02   0.204E-09 -.856E-09 0.722E-08
   -.123E-03 -.551E-04 0.737E-04   0.121E-03 0.543E-04 -.720E-04   0.265E-05 0.770E-06 -.839E-06   -.414E-10 -.182E-10 -.972E-11
   -.362E-04 0.556E-04 0.120E-03   0.351E-04 -.548E-04 -.117E-03   0.159E-05 -.660E-06 -.185E-05   -.255E-09 0.372E-10 -.606E-09
   -.136E-03 -.598E-04 -.799E-04   0.135E-03 0.590E-04 0.779E-04   0.238E-05 0.765E-06 0.809E-06   -.287E-09 0.237E-10 0.769E-09
   -.313E-04 0.517E-04 -.120E-03   0.297E-04 -.508E-04 0.117E-03   0.191E-05 -.698E-06 0.203E-05   0.361E-11 -.264E-10 0.183E-09
   0.510E+02 -.551E+01 -.359E+02   -.527E+02 0.516E+01 0.363E+02   0.141E+01 0.534E-02 -.446E+00   -.148E-08 -.245E-09 0.148E-08
   0.133E+02 -.441E+02 0.365E+02   -.135E+02 0.452E+02 -.370E+02   0.569E+00 -.762E+00 0.504E+00   -.693E-09 -.270E-09 0.128E-08
   -.510E+02 0.551E+01 0.359E+02   0.527E+02 -.516E+01 -.363E+02   -.141E+01 -.534E-02 0.446E+00   0.148E-08 0.248E-09 -.145E-08
   -.133E+02 0.441E+02 -.365E+02   0.135E+02 -.452E+02 0.370E+02   -.569E+00 0.762E+00 -.504E+00   0.692E-09 0.276E-09 -.131E-08
   0.133E+02 0.442E+02 0.366E+02   -.135E+02 -.452E+02 -.370E+02   0.537E+00 0.733E+00 0.430E+00   0.120E-08 0.106E-08 -.169E-08
   0.510E+02 0.555E+01 -.360E+02   -.527E+02 -.516E+01 0.363E+02   0.138E+01 -.396E-01 -.375E+00   0.129E-08 0.170E-08 -.114E-08
   -.133E+02 -.442E+02 -.366E+02   0.135E+02 0.452E+02 0.370E+02   -.537E+00 -.733E+00 -.430E+00   -.121E-08 -.107E-08 0.172E-08
   -.510E+02 -.555E+01 0.360E+02   0.527E+02 0.516E+01 -.363E+02   -.138E+01 0.396E-01 0.375E+00   -.129E-08 -.171E-08 0.110E-08
   -.689E+02 0.137E+02 -.268E+02   0.696E+02 -.161E+02 0.278E+02   -.705E+00 0.235E+01 -.574E+00   -.204E-08 0.894E-09 -.790E-08
   -.689E+02 -.137E+02 -.268E+02   0.696E+02 0.161E+02 0.278E+02   -.709E+00 -.234E+01 -.575E+00   -.875E-09 0.735E-09 0.674E-08
   0.689E+02 0.137E+02 0.268E+02   -.696E+02 -.161E+02 -.278E+02   0.709E+00 0.234E+01 0.575E+00   0.884E-09 -.738E-09 -.673E-08
   0.689E+02 -.137E+02 0.268E+02   -.696E+02 0.161E+02 -.278E+02   0.705E+00 -.235E+01 0.574E+00   0.205E-08 -.883E-09 0.789E-08
 -----------------------------------------------------------------------------------------------
   -.241E-04 -.188E-05 0.204E-06   0.000E+00 0.391E-13 -.568E-13   0.241E-04 0.186E-05 -.223E-06   -.491E-09 -.240E-10 0.314E-09


 POSITION                                       TOTAL-FORCE (eV/Angst)
 -----------------------------------------------------------------------------------
      5.39949      0.19516      1.92165        -0.003543     -0.001065     -0.005426
      0.04080      5.22456      5.76494         0.003543      0.001065      0.005426
      2.67935      2.51470      5.76494        -0.004923     -0.001990     -0.005895
      2.76094      2.90502      1.92165         0.004922      0.001991      0.005895
      2.72015     -0.00000      0.00000         0.000001     -0.000000      0.000001
      0.00000      2.70986      0.00000         0.000001      0.000000      0.000001
      2.72015     -0.00000      3.84330         0.000001      0.000000     -0.000001
      0.00000      2.70986      3.84330         0.000000      0.000000     -0.000001
      3.94127      1.53378      0.29164        -0.327894     -0.343501     -0.006509
      3.90447      1.49712      3.55165         0.319834      0.354215     -0.003559
      1.49902      3.88594      7.39495         0.327893      0.343499      0.006506
      1.53582      3.92260      4.13494        -0.319834     -0.354217      0.003562
      1.18433      1.21274      7.39495         0.323811     -0.350926      0.002561
      1.22113      1.17608      4.13494        -0.323933      0.347340     -0.012339
      4.25596      4.20698      0.29164        -0.323812      0.350928     -0.002563
      4.21916      4.24364      3.55165         0.323932     -0.347338      0.012341
      3.09170      0.03418      5.73895         0.012791      0.001276      0.462164
      0.37156      2.67568      1.89565         0.012993     -0.000904      0.462065
      5.06873      2.74404      5.79094        -0.012994      0.000904     -0.462065
      2.34859      5.38554      1.94765        -0.012789     -0.001275     -0.462164
 -----------------------------------------------------------------------------------
    total drift:                               -0.000000     -0.000000     -0.000000


--------------------------------------------------------------------------------------------------------



  FREE ENERGIE OF THE ION-ELECTRON SYSTEM (eV)
  ---------------------------------------------------
  free  energy   TOTEN  =      -142.55954679 eV

  energy  without entropy=     -142.55954679  energy(sigma->0) =     -142.55954679



--------------------------------------------------------------------------------------------------------


    POTLOK:  cpu time      0.1282: real time      0.0162


--------------------------------------------------------------------------------------------------------


 writing wavefunctions
     LOOP+:  cpu time   2254.7091: real time    315.8399
 -----------------------------------------------------------------------------
|                                                                             |
|           W    W    AA    RRRRR   N    N  II  N    N   GGGG   !!!           |
|           W    W   A  A   R    R  NN   N  II  NN   N  G    G  !!!           |
|           W    W  A    A  R    R  N N  N  II  N N  N  G       !!!           |
|           W WW W  AAAAAA  RRRRR   N  N N  II  N  N N  G  GGG   !            |
|           WW  WW  A    A  R   R   N   NN  II  N   NN  G    G                |
|           W    W  A    A  R    R  N    N  II  N    N   GGGG   !!!           |
|                                                                             |
|     Tetrahedron method does not include variations of the Fermi             |
|     occupations, so forces and stress will be inaccurate. We suggest        |
|     using a different smearing scheme ISMEAR = 1 or 2 for metals in         |
|     relaxations.                                                            |
|                                                                             |
 -----------------------------------------------------------------------------

    4ORBIT:  cpu time      0.0000: real time      0.0000

 optimized coefficients for linear combined projectors, energy window     -62.80     15.34
 species Pr NT=   1 L=   0     0.993    -0.073
 species Pr NT=   1 L=   1     0.974    -0.185
 species Pr NT=   1 L=   2     0.745     0.947
 species Ni NT=   2 L=   1     0.999    -0.084
 species Ni NT=   2 L=   2     0.952     0.973
 species Ni NT=   2 L=   0     0.493     0.938
 species O  NT=   3 L=   0     0.901    -0.971
 species O  NT=   3 L=   1     0.852    -0.939



 total charge

# of ion       s       p       d       tot
------------------------------------------
    1        2.059   5.838   0.698   8.594
    2        2.059   5.838   0.698   8.594
    3        2.059   5.838   0.698   8.594
    4        2.059   5.838   0.698   8.594
    5        0.244   6.244   7.851  14.339
    6        0.266   6.286   7.840  14.391
    7        0.266   6.285   7.840  14.391
    8        0.244   6.244   7.851  14.339
    9        1.590   3.444   0.000   5.034
   10        1.590   3.443   0.000   5.033
   11        1.590   3.444   0.000   5.034
   12        1.590   3.443   0.000   5.033
   13        1.590   3.443   0.000   5.034
   14        1.590   3.444   0.000   5.034
   15        1.590   3.443   0.000   5.034
   16        1.590   3.444   0.000   5.034
   17        1.591   3.444   0.000   5.035
   18        1.591   3.444   0.000   5.035
   19        1.591   3.444   0.000   5.035
   20        1.591   3.444   0.000   5.035
--------------------------------------------------
tot         28.343  89.733  34.172 152.248

 BZINTS: Fermi energy:    5.022851;  180.000000 electrons
         Band energy:-0.204652E+04;  BLOECHL correction:   -0.076823

 total amount of memory used by VASP MPI-rank0   568790. kBytes
=======================================================================

   base      :      30000. kBytes
   nonl-proj :     258615. kBytes
   fftplans  :       2286. kBytes
   grid      :       5356. kBytes
   one-center:        311. kBytes
   wavefun   :     272222. kBytes

  
  
 General timing and accounting informations for this job:
 ========================================================
  
                  Total CPU time used (sec):     2276.529
                            User time (sec):     2273.614
                          System time (sec):        2.914
                         Elapsed time (sec):      333.145
  
                   Maximum memory used (kb):      685880.
                   Average memory used (kb):          N/A
  
                          Minor page faults:       135040
                          Major page faults:          720
                 Voluntary context switches:        20242
