 vasp.5.4.4.18Apr17-6-g9f103f2a35 (build Dec 17 2021 11:40:50) complex           
 executed on             LinuxIFC date 2022.02.17  17:10:55
 running on    8 total cores
 distrk:  each k-point on    2 cores,    4 groups
 distr:  one band on NCORES_PER_BAND=   2 cores,    1 groups


--------------------------------------------------------------------------------------------------------


 INCAR:
 POTCAR:    PAW_PBE Pr_3 07Sep2000                
 POTCAR:    PAW_PBE Ni_pv 06Sep2000               
 POTCAR:    PAW_PBE O 08Apr2002                   

 ----------------------------------------------------------------------------- 
|                                                                             |
|           W    W    AA    RRRRR   N    N  II  N    N   GGGG   !!!           |
|           W    W   A  A   R    R  NN   N  II  NN   N  G    G  !!!           |
|           W    W  A    A  R    R  N N  N  II  N N  N  G       !!!           |
|           W WW W  AAAAAA  RRRRR   N  N N  II  N  N N  G  GGG   !            |
|           WW  WW  A    A  R   R   N   NN  II  N   NN  G    G                |
|           W    W  A    A  R    R  N    N  II  N    N   GGGG   !!!           |
|                                                                             |
|      You have enabled k-point parallelism (KPAR>1).                         |
|      This developmental code was originally  written by Paul Kent at ORNL,  |
|      and carefully double checked in Vienna.                                |
|      GW as well as linear response parallelism added by Martijn Marsman     |
|      and Georg Kresse.                                                      |
|      Carefully verify results versus KPAR=1.                                |
|      Report problems to Paul Kent and Vienna.                               |
|                                                                             |
 ----------------------------------------------------------------------------- 

 POTCAR:    PAW_PBE Pr_3 07Sep2000                
   VRHFIN =Pr : [core=Xe4]                                                      
   LEXCH  = PE                                                                  
   EATOM  =   912.8502 eV,   67.0926 Ry                                         
                                                                                
   TITEL  = PAW_PBE Pr_3 07Sep2000                                              
   LULTRA =        F    use ultrasoft PP ?                                      
   IUNSCR =        1    unscreen: 0-lin 1-nonlin 2-no                           
   RPACOR =    2.400    partial core radius                                     
   POMASS =  140.907; ZVAL   =   11.000    mass and valenz                      
   RCORE  =    2.800    outmost cutoff radius                                   
   RWIGS  =    3.100; RWIGS  =    1.640    wigner-seitz radius (au A)           
   ENMAX  =  181.719; ENMIN  =  136.289 eV                                      
   RCLOC  =    2.419    cutoff for local pot                                    
   LCOR   =        T    correct aug charges                                     
   LPAW   =        T    paw PP                                                  
   EAUG   =  303.718                                                            
   DEXC   =    0.000                                                            
   RMAX   =    2.867    core radius for proj-oper                               
   RAUG   =    1.300    factor for augmentation sphere                          
   RDEP   =    2.816    radius for radial grids                                 
   RDEPT  =    2.395    core radius for aug-charge                              
                                                                                
   Atomic configuration                                                         
   14 entries                                                                   
     n  l   j            E        occ.                                          
     1  0  0.50    -41810.3934   2.0000                                         
     2  0  0.50     -6731.1418   2.0000                                         
     2  1  1.50     -6022.4876   6.0000                                         
     3  0  0.50     -1458.2043   2.0000                                         
     3  1  1.50     -1233.8862   6.0000                                         
     3  2  2.50      -919.2566  10.0000                                         
     4  0  0.50      -295.2681   2.0000                                         
     4  1  1.50      -221.8430   6.0000                                         
     4  2  2.50      -116.8418  10.0000                                         
     4  3  2.50        -6.2311   2.0000                                         
     5  0  0.50       -42.1589   2.0000                                         
     6  0  0.50        -3.8068   2.0000                                         
     5  1  1.50       -23.9655   6.0000                                         
     5  2  2.50        -3.0008   1.0000                                         
   Description                                                                  
     l       E           TYP  RCUT    TYP  RCUT                                 
     0    -42.1589422     23  2.800                                             
     0     -3.8068346     23  2.800                                             
     1    -23.9655307     23  2.800                                             
     1     13.6058260     23  2.800                                             
     2     -3.0008139     23  2.800                                             
     2     -0.1733532     23  2.800                                             
  local pseudopotential read in
  partial core-charges read in
  partial kinetic energy density read in
  atomic valenz-charges read in
  non local Contribution for L=           0  read in
    real space projection operators read in
  non local Contribution for L=           0  read in
    real space projection operators read in
  non local Contribution for L=           1  read in
    real space projection operators read in
  non local Contribution for L=           1  read in
    real space projection operators read in
  non local Contribution for L=           2  read in
    real space projection operators read in
  non local Contribution for L=           2  read in
    real space projection operators read in
    PAW grid and wavefunctions read in

   number of l-projection  operators is LMAX  =           6
   number of lm-projection operators is LMMAX =          18

 POTCAR:    PAW_PBE Ni_pv 06Sep2000               
   VRHFIN =Ni:                                                                  
   LEXCH  = PE                                                                  
   EATOM  =  3501.1230 eV,  257.3253 Ry                                         
                                                                                
   TITEL  = PAW_PBE Ni_pv 06Sep2000                                             
   LULTRA =        F    use ultrasoft PP ?                                      
   IUNSCR =        1    unscreen: 0-lin 1-nonlin 2-no                           
   RPACOR =    1.500    partial core radius                                     
   POMASS =   58.690; ZVAL   =   16.000    mass and valenz                      
   RCORE  =    2.000    outmost cutoff radius                                   
   RWIGS  =    2.000; RWIGS  =    1.058    wigner-seitz radius (au A)           
   ENMAX  =  367.986; ENMIN  =  275.989 eV                                      
   RCLOC  =    1.301    cutoff for local pot                                    
   LCOR   =        T    correct aug charges                                     
   LPAW   =        T    paw PP                                                  
   EAUG   =  703.443                                                            
   DEXC   =    0.000                                                            
   RMAX   =    2.041    core radius for proj-oper                               
   RAUG   =    1.300    factor for augmentation sphere                          
   RDEP   =    2.103    radius for radial grids                                 
   RDEPT  =    1.618    core radius for aug-charge                              
                                                                                
   Atomic configuration                                                         
    8 entries                                                                   
     n  l   j            E        occ.                                          
     1  0  0.50     -8206.4253   2.0000                                         
     2  0  0.50      -976.1748   2.0000                                         
     2  1  1.50      -839.0571   6.0000                                         
     3  0  0.50      -105.9991   2.0000                                         
     3  1  1.50       -66.4603   6.0000                                         
     3  2  2.50        -4.6458   9.0000                                         
     4  0  0.50        -4.4926   1.0000                                         
     4  3  2.50        -1.3606   0.0000                                         
   Description                                                                  
     l       E           TYP  RCUT    TYP  RCUT                                 
     1    -66.4602962     23  1.700                                             
     1     -1.3605826     23  1.700                                             
     2     -4.6457867     23  2.000                                             
     2     -6.0063693     23  2.000                                             
     0     -4.4925576     23  1.900                                             
     0     16.3626226     23  1.900                                             
  local pseudopotential read in
  partial core-charges read in
  partial kinetic energy density read in
  atomic valenz-charges read in
  non local Contribution for L=           1  read in
    real space projection operators read in
  non local Contribution for L=           1  read in
    real space projection operators read in
  non local Contribution for L=           2  read in
    real space projection operators read in
  non local Contribution for L=           2  read in
    real space projection operators read in
  non local Contribution for L=           0  read in
    real space projection operators read in
  non local Contribution for L=           0  read in
    real space projection operators read in
    PAW grid and wavefunctions read in

   number of l-projection  operators is LMAX  =           6
   number of lm-projection operators is LMMAX =          18

 POTCAR:    PAW_PBE O 08Apr2002                   
   VRHFIN =O: s2p4                                                              
   LEXCH  = PE                                                                  
   EATOM  =   432.3788 eV,   31.7789 Ry                                         
                                                                                
   TITEL  = PAW_PBE O 08Apr2002                                                 
   LULTRA =        F    use ultrasoft PP ?                                      
   IUNSCR =        1    unscreen: 0-lin 1-nonlin 2-no                           
   RPACOR =    1.200    partial core radius                                     
   POMASS =   16.000; ZVAL   =    6.000    mass and valenz                      
   RCORE  =    1.520    outmost cutoff radius                                   
   RWIGS  =    1.550; RWIGS  =    0.820    wigner-seitz radius (au A)           
   ENMAX  =  400.000; ENMIN  =  300.000 eV                                      
   ICORE  =        2    local potential                                         
   LCOR   =        T    correct aug charges                                     
   LPAW   =        T    paw PP                                                  
   EAUG   =  605.392                                                            
   DEXC   =    0.000                                                            
   RMAX   =    1.553    core radius for proj-oper                               
   RAUG   =    1.300    factor for augmentation sphere                          
   RDEP   =    1.550    radius for radial grids                                 
   RDEPT  =    1.329    core radius for aug-charge                              
                                                                                
   Atomic configuration                                                         
    4 entries                                                                   
     n  l   j            E        occ.                                          
     1  0  0.50      -514.6923   2.0000                                         
     2  0  0.50       -23.9615   2.0000                                         
     2  1  0.50        -9.0305   4.0000                                         
     3  2  1.50        -9.5241   0.0000                                         
   Description                                                                  
     l       E           TYP  RCUT    TYP  RCUT                                 
     0    -23.9615318     23  1.200                                             
     0     -9.5240782     23  1.200                                             
     1     -9.0304911     23  1.520                                             
     1      8.1634956     23  1.520                                             
     2     -9.5240782      7  1.500                                             
  local pseudopotential read in
  partial core-charges read in
  partial kinetic energy density read in
  kinetic energy density of atom read in
  atomic valenz-charges read in
  non local Contribution for L=           0  read in
    real space projection operators read in
  non local Contribution for L=           0  read in
    real space projection operators read in
  non local Contribution for L=           1  read in
    real space projection operators read in
  non local Contribution for L=           1  read in
    real space projection operators read in
    PAW grid and wavefunctions read in

   number of l-projection  operators is LMAX  =           4
   number of lm-projection operators is LMMAX =           8


 ----------------------------------------------------------------------------- 
|                                                                             |
|  ADVICE TO THIS USER RUNNING 'VASP/VAMP'   (HEAR YOUR MASTER'S VOICE ...):  |
|                                                                             |
|      You have a (more or less) 'large supercell' and for larger cells       |
|      it might be more efficient to use real space projection opertators     |
|      So try LREAL= Auto  in the INCAR   file.                               |
|      Mind:          For very  accurate calculation you might also keep the  |
|      reciprocal projection scheme          (i.e. LREAL=.FALSE.)             |
|                                                                             |
 ----------------------------------------------------------------------------- 

  PAW_PBE Pr_3 07Sep2000                :
 energy of atom  1       EATOM= -912.8502
 kinetic energy error for atom=    0.0004 (will be added to EATOM!!)
  PAW_PBE Ni_pv 06Sep2000               :
 energy of atom  2       EATOM=-3501.1230
 kinetic energy error for atom=    0.0396 (will be added to EATOM!!)
  PAW_PBE O 08Apr2002                   :
 energy of atom  3       EATOM= -432.3788
 kinetic energy error for atom=    0.0194 (will be added to EATOM!!)


 POSCAR: PrNiO3                                  
  positions in direct lattice
  No initial velocities read in
 exchange correlation table for  LEXCH =        8
   RHO(1)=    0.500       N(1)  =     2000
   RHO(2)=  100.500       N(2)  =     4000



--------------------------------------------------------------------------------------------------------


 ion  position               nearest neighbor table
   1  0.993  0.036  0.250-  20 2.40  16 2.44  15 2.44  18 2.51   9 2.56  10 2.57  13 2.73  14 2.73
                             6 3.17   8 3.17   4 3.78   4 3.78   2 3.86   2 3.86   4 3.90   4 3.90
   2  0.007  0.964  0.750-  17 2.40  14 2.44  13 2.44  19 2.51  11 2.56  12 2.57  15 2.73  16 2.73
                             6 3.17   8 3.17   3 3.78   3 3.78   1 3.86   1 3.86   3 3.90   3 3.90
   3  0.493  0.464  0.750-  19 2.40  11 2.44  12 2.44  17 2.51  14 2.56  13 2.57  10 2.73   9 2.73
                             5 3.17   7 3.17   2 3.78   2 3.78   4 3.86   4 3.86   2 3.90   2 3.90
   4  0.507  0.536  0.250-  18 2.40   9 2.44  10 2.44  20 2.51  16 2.56  15 2.57  12 2.73  11 2.73
                             5 3.17   7 3.17   1 3.78   1 3.78   3 3.86   3 3.86   1 3.90   1 3.90
   5  0.500  0.000  0.000-  13 1.98  15 1.98  11 1.98   9 1.98  17 1.98  20 1.98   3 3.17   4 3.17

   6  0.000  0.500  0.000-   9 1.93  11 1.93  15 1.93  13 1.93  19 1.93  18 1.93   1 3.17   2 3.17

   7  0.500  0.000  0.500-  14 1.93  16 1.93  12 1.93  10 1.93  17 1.93  20 1.93   3 3.17   4 3.17

   8  0.000  0.500  0.500-  10 1.98  12 1.98  16 1.98  14 1.98  19 1.98  18 1.98   1 3.17   2 3.17

   9  0.724  0.283  0.038-   6 1.93   5 1.98   4 2.44   1 2.56   3 2.73
  10  0.718  0.276  0.462-   7 1.93   8 1.98   4 2.44   1 2.57   3 2.73
  11  0.276  0.717  0.962-   6 1.93   5 1.98   3 2.44   2 2.56   4 2.73
  12  0.282  0.724  0.538-   7 1.93   8 1.98   3 2.44   2 2.57   4 2.73
  13  0.218  0.224  0.962-   6 1.93   5 1.98   2 2.44   3 2.57   1 2.73
  14  0.224  0.217  0.538-   7 1.93   8 1.98   2 2.44   3 2.56   1 2.73
  15  0.782  0.776  0.038-   6 1.93   5 1.98   1 2.44   4 2.57   2 2.73
  16  0.776  0.783  0.462-   7 1.93   8 1.98   1 2.44   4 2.56   2 2.73
  17  0.568  0.006  0.747-   7 1.93   5 1.98   2 2.40   3 2.51
  18  0.068  0.494  0.247-   6 1.93   8 1.98   4 2.40   1 2.51
  19  0.932  0.506  0.753-   6 1.93   8 1.98   3 2.40   2 2.51
  20  0.432  0.994  0.253-   7 1.93   5 1.98   1 2.40   4 2.51

  LATTYP: Found a simple orthorhombic cell.
 ALAT       =     5.4197165967
 B/A-ratio  =     1.0037961840
 C/A-ratio  =     1.4182646545
  
  Lattice vectors:
  
 A1 = (  -0.0000000000,  -5.4197165967,   0.0000000000)
 A2 = (  -5.4402908379,   0.0000000000,   0.0000000000)
 A3 = (   0.0000000000,   0.0000000000,  -7.6865924865)


Analysis of symmetry for initial positions (statically):
=====================================================================
 Subroutine PRICEL returns:
 Original cell was already a primitive cell.
 

 Routine SETGRP: Setting up the symmetry group for a 
 simple orthorhombic supercell.


 Subroutine GETGRP returns: Found  4 space group operations
 (whereof  2 operations were pure point group operations)
 out of a pool of  8 trial point group operations.


The static configuration has the point symmetry S_2 .
 The point group associated with its full space group is C_2h.


Analysis of symmetry for dynamics (positions and initial velocities):
=====================================================================
 Subroutine PRICEL returns:
 Original cell was already a primitive cell.
 

 Routine SETGRP: Setting up the symmetry group for a 
 simple orthorhombic supercell.


 Subroutine GETGRP returns: Found  4 space group operations
 (whereof  2 operations were pure point group operations)
 out of a pool of  8 trial point group operations.


The dynamic configuration has the point symmetry S_2 .
 The point group associated with its full space group is C_2h.


 Subroutine INISYM returns: Found  4 space group operations
 (whereof  2 operations are pure point group operations),
 and found     1 'primitive' translations



 KPOINTS: Automatic kpoint scheme                 

Automatic generation of k-mesh.
Space group operators:
 irot       det(A)        alpha          n_x          n_y          n_z        tau_x        tau_y        tau_z
    1     1.000000     0.000000     1.000000     0.000000     0.000000     0.000000     0.000000     0.000000
    2    -1.000000     0.000000     1.000000     0.000000     0.000000     0.000000     0.000000     0.000000
    3     1.000000   180.000000     0.000000     1.000000     0.000000    -0.500000    -0.500000    -0.500000
    4    -1.000000   180.000000     0.000000     1.000000     0.000000    -0.500000    -0.500000    -0.500000
 
 Subroutine IBZKPT returns following result:
 ===========================================
 
 Found     72 irreducible k-points:
 
 Following reciprocal coordinates:
            Coordinates               Weight
  0.000000  0.000000  0.000000      1.000000
  0.142857  0.000000  0.000000      2.000000
  0.285714  0.000000  0.000000      2.000000
  0.428571  0.000000  0.000000      2.000000
  0.000000  0.142857  0.000000      2.000000
  0.142857  0.142857  0.000000      4.000000
  0.285714  0.142857  0.000000      4.000000
  0.428571  0.142857  0.000000      4.000000
  0.000000  0.285714  0.000000      2.000000
  0.142857  0.285714  0.000000      4.000000
  0.285714  0.285714  0.000000      4.000000
  0.428571  0.285714  0.000000      4.000000
  0.000000  0.428571  0.000000      2.000000
  0.142857  0.428571  0.000000      4.000000
  0.285714  0.428571  0.000000      4.000000
  0.428571  0.428571  0.000000      4.000000
  0.000000  0.000000  0.200000      2.000000
  0.142857  0.000000  0.200000      2.000000
  0.285714  0.000000  0.200000      2.000000
  0.428571  0.000000  0.200000      2.000000
 -0.428571  0.000000  0.200000      2.000000
 -0.285714  0.000000  0.200000      2.000000
 -0.142857  0.000000  0.200000      2.000000
  0.000000  0.142857  0.200000      4.000000
  0.142857  0.142857  0.200000      4.000000
  0.285714  0.142857  0.200000      4.000000
  0.428571  0.142857  0.200000      4.000000
 -0.428571  0.142857  0.200000      4.000000
 -0.285714  0.142857  0.200000      4.000000
 -0.142857  0.142857  0.200000      4.000000
  0.000000  0.285714  0.200000      4.000000
  0.142857  0.285714  0.200000      4.000000
  0.285714  0.285714  0.200000      4.000000
  0.428571  0.285714  0.200000      4.000000
 -0.428571  0.285714  0.200000      4.000000
 -0.285714  0.285714  0.200000      4.000000
 -0.142857  0.285714  0.200000      4.000000
  0.000000  0.428571  0.200000      4.000000
  0.142857  0.428571  0.200000      4.000000
  0.285714  0.428571  0.200000      4.000000
  0.428571  0.428571  0.200000      4.000000
 -0.428571  0.428571  0.200000      4.000000
 -0.285714  0.428571  0.200000      4.000000
 -0.142857  0.428571  0.200000      4.000000
  0.000000  0.000000  0.400000      2.000000
  0.142857  0.000000  0.400000      2.000000
  0.285714  0.000000  0.400000      2.000000
  0.428571  0.000000  0.400000      2.000000
 -0.428571  0.000000  0.400000      2.000000
 -0.285714  0.000000  0.400000      2.000000
 -0.142857  0.000000  0.400000      2.000000
  0.000000  0.142857  0.400000      4.000000
  0.142857  0.142857  0.400000      4.000000
  0.285714  0.142857  0.400000      4.000000
  0.428571  0.142857  0.400000      4.000000
 -0.428571  0.142857  0.400000      4.000000
 -0.285714  0.142857  0.400000      4.000000
 -0.142857  0.142857  0.400000      4.000000
  0.000000  0.285714  0.400000      4.000000
  0.142857  0.285714  0.400000      4.000000
  0.285714  0.285714  0.400000      4.000000
  0.428571  0.285714  0.400000      4.000000
 -0.428571  0.285714  0.400000      4.000000
 -0.285714  0.285714  0.400000      4.000000
 -0.142857  0.285714  0.400000      4.000000
  0.000000  0.428571  0.400000      4.000000
  0.142857  0.428571  0.400000      4.000000
  0.285714  0.428571  0.400000      4.000000
  0.428571  0.428571  0.400000      4.000000
 -0.428571  0.428571  0.400000      4.000000
 -0.285714  0.428571  0.400000      4.000000
 -0.142857  0.428571  0.400000      4.000000
 
 Following cartesian coordinates:
            Coordinates               Weight
  0.000000  0.000000  0.000000      1.000000
  0.026259  0.000000  0.000000      2.000000
  0.052518  0.000000  0.000000      2.000000
  0.078777  0.000000  0.000000      2.000000
  0.000000  0.026359  0.000000      2.000000
  0.026259  0.026359  0.000000      4.000000
  0.052518  0.026359  0.000000      4.000000
  0.078777  0.026359  0.000000      4.000000
  0.000000  0.052718  0.000000      2.000000
  0.026259  0.052718  0.000000      4.000000
  0.052518  0.052718  0.000000      4.000000
  0.078777  0.052718  0.000000      4.000000
  0.000000  0.079076  0.000000      2.000000
  0.026259  0.079076  0.000000      4.000000
  0.052518  0.079076  0.000000      4.000000
  0.078777  0.079076  0.000000      4.000000
  0.000000  0.000000  0.026019      2.000000
  0.026259  0.000000  0.026019      2.000000
  0.052518  0.000000  0.026019      2.000000
  0.078777  0.000000  0.026019      2.000000
 -0.078777  0.000000  0.026019      2.000000
 -0.052518  0.000000  0.026019      2.000000
 -0.026259  0.000000  0.026019      2.000000
  0.000000  0.026359  0.026019      4.000000
  0.026259  0.026359  0.026019      4.000000
  0.052518  0.026359  0.026019      4.000000
  0.078777  0.026359  0.026019      4.000000
 -0.078777  0.026359  0.026019      4.000000
 -0.052518  0.026359  0.026019      4.000000
 -0.026259  0.026359  0.026019      4.000000
  0.000000  0.052718  0.026019      4.000000
  0.026259  0.052718  0.026019      4.000000
  0.052518  0.052718  0.026019      4.000000
  0.078777  0.052718  0.026019      4.000000
 -0.078777  0.052718  0.026019      4.000000
 -0.052518  0.052718  0.026019      4.000000
 -0.026259  0.052718  0.026019      4.000000
  0.000000  0.079076  0.026019      4.000000
  0.026259  0.079076  0.026019      4.000000
  0.052518  0.079076  0.026019      4.000000
  0.078777  0.079076  0.026019      4.000000
 -0.078777  0.079076  0.026019      4.000000
 -0.052518  0.079076  0.026019      4.000000
 -0.026259  0.079076  0.026019      4.000000
  0.000000  0.000000  0.052039      2.000000
  0.026259  0.000000  0.052039      2.000000
  0.052518  0.000000  0.052039      2.000000
  0.078777  0.000000  0.052039      2.000000
 -0.078777  0.000000  0.052039      2.000000
 -0.052518  0.000000  0.052039      2.000000
 -0.026259  0.000000  0.052039      2.000000
  0.000000  0.026359  0.052039      4.000000
  0.026259  0.026359  0.052039      4.000000
  0.052518  0.026359  0.052039      4.000000
  0.078777  0.026359  0.052039      4.000000
 -0.078777  0.026359  0.052039      4.000000
 -0.052518  0.026359  0.052039      4.000000
 -0.026259  0.026359  0.052039      4.000000
  0.000000  0.052718  0.052039      4.000000
  0.026259  0.052718  0.052039      4.000000
  0.052518  0.052718  0.052039      4.000000
  0.078777  0.052718  0.052039      4.000000
 -0.078777  0.052718  0.052039      4.000000
 -0.052518  0.052718  0.052039      4.000000
 -0.026259  0.052718  0.052039      4.000000
  0.000000  0.079076  0.052039      4.000000
  0.026259  0.079076  0.052039      4.000000
  0.052518  0.079076  0.052039      4.000000
  0.078777  0.079076  0.052039      4.000000
 -0.078777  0.079076  0.052039      4.000000
 -0.052518  0.079076  0.052039      4.000000
 -0.026259  0.079076  0.052039      4.000000
 
 TETIRR: Found    723 inequivalent tetrahedra from     1470


--------------------------------------------------------------------------------------------------------




 Dimension of arrays:
   k-points           NKPTS =     72   k-points in BZ     NKDIM =     72   number of bands    NBANDS=    128
   number of dos      NEDOS =   5001   number of ions     NIONS =     20
   non local maximal  LDIM  =      6   non local SUM 2l+1 LMDIM =     18
   total plane-waves  NPLWV =  49152
   max r-space proj   IRMAX =      1   max aug-charges    IRDMAX=  17076
   dimension x,y,z NGX =    32 NGY =   32 NGZ =   48
   dimension x,y,z NGXF=    64 NGYF=   64 NGZF=   96
   support grid    NGXF=    64 NGYF=   64 NGZF=   96
   ions per type =               4   4  12
   NGX,Y,Z   is equivalent  to a cutoff of   9.78,  9.82, 10.38 a.u.
   NGXF,Y,Z  is equivalent  to a cutoff of  19.56, 19.63, 20.76 a.u.

 SYSTEM =  PrNiO3                                  
 POSCAR =  PrNiO3                                  

 Startparameter for this run:
   NWRITE =      2    write-flag & timer
   PREC   = normal    normal or accurate (medium, high low for compatibility)
   ISTART =      0    job   : 0-new  1-cont  2-samecut
   ICHARG =      2    charge: 1-file 2-atom 10-const
   ISPIN  =      1    spin polarized calculation?
   LNONCOLLINEAR =      F non collinear calculations
   LSORBIT =      F    spin-orbit coupling
   INIWAV =      1    electr: 0-lowe 1-rand  2-diag
   LASPH  =      F    aspherical Exc in radial PAW
   METAGGA=      F    non-selfconsistent MetaGGA calc.

 Electronic Relaxation 1
   ENCUT  =  550.0 eV  40.42 Ry    6.36 a.u.  10.40 10.36 14.70*2*pi/ulx,y,z
   ENINI  =  550.0     initial cutoff
   ENAUG  =  703.4 eV  augmentation charge cutoff
   NELM   =     60;   NELMIN= 30; NELMDL= -5     # of ELM steps 
   EDIFF  = 0.1E-07   stopping-criterion for ELM
   LREAL  =      F    real-space projection
   NLSPLINE    = F    spline interpolate recip. space projectors
   LCOMPAT=      F    compatible to vasp.4.4
   GGA_COMPAT  = T    GGA compatible to vasp.4.4-vasp.4.6
   LMAXPAW     = -100 max onsite density
   LMAXMIX     =    6 max onsite mixed and CHGCAR
   VOSKOWN=      0    Vosko Wilk Nusair interpolation
   ROPT   =    0.00000   0.00000   0.00000
 Ionic relaxation
   EDIFFG = 0.1E-06   stopping-criterion for IOM
   NSW    =      0    number of steps for IOM
   NBLOCK =      1;   KBLOCK =      1    inner block; outer block 
   IBRION =     -1    ionic relax: 0-MD 1-quasi-New 2-CG
   NFREE  =      0    steps in history (QN), initial steepest desc. (CG)
   ISIF   =      2    stress and relaxation
   IWAVPR =     10    prediction:  0-non 1-charg 2-wave 3-comb
   ISYM   =      2    0-nonsym 1-usesym 2-fastsym
   LCORR  =      T    Harris-Foulkes like correction to forces

   POTIM  = 0.5000    time-step for ionic-motion
   TEIN   =    0.0    initial temperature
   TEBEG  =    0.0;   TEEND  =   0.0 temperature during run
   SMASS  =  -3.00    Nose mass-parameter (am)
   estimated Nose-frequenzy (Omega)   =  0.10E-29 period in steps =****** mass=  -0.676E-27a.u.
   SCALEE = 1.0000    scale energy and forces
   NPACO  =    256;   APACO  = 16.0  distance and # of slots for P.C.
   PSTRESS=    0.0 pullay stress

  Mass of Ions in am
   POMASS = 140.91 58.69 16.00
  Ionic Valenz
   ZVAL   =  11.00 16.00  6.00
  Atomic Wigner-Seitz radii
   RWIGS  =  -1.00 -1.00 -1.00
  virtual crystal weights 
   VCA    =   1.00  1.00  1.00
   NELECT =     180.0000    total number of electrons
   NUPDOWN=      -1.0000    fix difference up-down

 DOS related values:
   EMIN   =  -2.00;   EMAX   =  8.00  energy-range for DOS
   EFERMI =   0.00
   ISMEAR =    -5;   SIGMA  =   0.01  broadening in eV -4-tet -1-fermi 0-gaus

 Electronic relaxation 2 (details)
   IALGO  =     38    algorithm
   LDIAG  =      T    sub-space diagonalisation (order eigenvalues)
   LSUBROT=      F    optimize rotation matrix (better conditioning)
   TURBO    =      0    0=normal 1=particle mesh
   IRESTART =      0    0=no restart 2=restart with 2 vectors
   NREBOOT  =      0    no. of reboots
   NMIN     =      0    reboot dimension
   EREF     =   0.00    reference energy to select bands
   IMIX   =      4    mixing-type and parameters
     AMIX     =   0.40;   BMIX     =  1.00
     AMIX_MAG =   1.60;   BMIX_MAG =  1.00
     AMIN     =   0.10
     WC   =   100.;   INIMIX=   1;  MIXPRE=   1;  MAXMIX= -45

 Intra band minimization:
   WEIMIN = 0.0000     energy-eigenvalue tresh-hold
   EBREAK =  0.20E-10  absolut break condition
   DEPER  =   0.30     relativ break condition  

   TIME   =   0.40     timestep for ELM

  volume/ion in A,a.u.               =      11.33        76.47
  Fermi-wavevector in a.u.,A,eV,Ry     =   1.516078  2.864972 31.272880  2.298492
  Thomas-Fermi vector in A             =   2.625516

 Write flags
   LWAVE        =      F    write WAVECAR
   LDOWNSAMPLE  =      F    k-point downsampling of WAVECAR
   LCHARG       =      T    write CHGCAR
   LVTOT        =      F    write LOCPOT, total local potential
   LVHAR        =      F    write LOCPOT, Hartree potential only
   LELF         =      F    write electronic localiz. function (ELF)
   LORBIT       =      0    0 simple, 1 ext, 2 COOP (PROOUT), +10 PAW based schemes


 Dipole corrections
   LMONO  =      F    monopole corrections only (constant potential shift)
   LDIPOL =      F    correct potential (dipole corrections)
   IDIPOL =      0    1-x, 2-y, 3-z, 4-all directions 
   EPSILON=  1.0000000 bulk dielectric constant

 Exchange correlation treatment:
   GGA     =    --    GGA type
   LEXCH   =     8    internal setting for exchange type
   VOSKOWN=      0    Vosko Wilk Nusair interpolation
   LHFCALC =     F    Hartree Fock is set to
   LHFONE  =     F    Hartree Fock one center treatment
   AEXX    =    0.0000 exact exchange contribution

 Linear response parameters
   LEPSILON=     F    determine dielectric tensor
   LRPA    =     F    only Hartree local field effects (RPA)
   LNABLA  =     F    use nabla operator in PAW spheres
   LVEL    =     F    velocity operator in full k-point grid
   LINTERFAST=   F  fast interpolation
   KINTER  =     0    interpolate to denser k-point grid
   CSHIFT  =0.1000    complex shift for real part using Kramers Kronig
   OMEGAMAX=  -1.0    maximum frequency
   DEG_THRESHOLD= 0.2000000E-02 threshold for treating states as degnerate
   RTIME   =   -0.100 relaxation time in fs
  (WPLASMAI=    0.000 imaginary part of plasma frequency in eV, 0.658/RTIME)
   DFIELD  = 0.0000000 0.0000000 0.0000000 field for delta impulse in time

 Orbital magnetization related:
   ORBITALMAG=     F  switch on orbital magnetization
   LCHIMAG   =     F  perturbation theory with respect to B field
   DQ        =  0.001000  dq finite difference perturbation B field
   LLRAUG    =     F  two centre corrections for induced B field



--------------------------------------------------------------------------------------------------------


 Static calculation
 charge density and potential will be updated during run
 non-spin polarized calculation
 Variant of blocked Davidson
 Davidson routine will perform the subspace rotation
 perform sub-space diagonalisation
    after iterative eigenvector-optimisation
 modified Broyden-mixing scheme, WC =      100.0
 initial mixing is a Kerker type mixing with AMIX =  0.4000 and BMIX =      1.0000
 Hartree-type preconditioning will be used
 using additional bands           38
 reciprocal scheme for non local part
 use partial core corrections
 calculate Harris-corrections to forces   (improved forces if not selfconsistent)
 use gradient corrections 
 use of overlap-Matrix (Vanderbilt PP)
 Fermi weights with tetrahedron method with Bloechl corrections


--------------------------------------------------------------------------------------------------------


  energy-cutoff  :      550.00
  volume of cell :      226.64
      direct lattice vectors                 reciprocal lattice vectors
     5.440290838 -0.000000000  0.000000000     0.183813702 -0.000000000  0.000000000
     0.000000000  5.419716597  0.000000000     0.000000000  0.184511493 -0.000000000
     0.000000000  0.000000000  7.686592486    -0.000000000  0.000000000  0.130096659

  length of vectors
     5.440290838  5.419716597  7.686592486     0.183813702  0.184511493  0.130096659



 k-points in units of 2pi/SCALE and weight: Automatic kpoint scheme                 
   0.00000000  0.00000000  0.00000000       0.004
   0.02625910  0.00000000  0.00000000       0.008
   0.05251820  0.00000000  0.00000000       0.008
   0.07877730  0.00000000  0.00000000       0.008
   0.00000000  0.02635878  0.00000000       0.008
   0.02625910  0.02635878  0.00000000       0.016
   0.05251820  0.02635878  0.00000000       0.016
   0.07877730  0.02635878  0.00000000       0.016
   0.00000000  0.05271757  0.00000000       0.008
   0.02625910  0.05271757  0.00000000       0.016
   0.05251820  0.05271757  0.00000000       0.016
   0.07877730  0.05271757  0.00000000       0.016
   0.00000000  0.07907635  0.00000000       0.008
   0.02625910  0.07907635  0.00000000       0.016
   0.05251820  0.07907635  0.00000000       0.016
   0.07877730  0.07907635  0.00000000       0.016
   0.00000000  0.00000000  0.02601933       0.008
   0.02625910  0.00000000  0.02601933       0.008
   0.05251820  0.00000000  0.02601933       0.008
   0.07877730  0.00000000  0.02601933       0.008
  -0.07877730  0.00000000  0.02601933       0.008
  -0.05251820  0.00000000  0.02601933       0.008
  -0.02625910  0.00000000  0.02601933       0.008
   0.00000000  0.02635878  0.02601933       0.016
   0.02625910  0.02635878  0.02601933       0.016
   0.05251820  0.02635878  0.02601933       0.016
   0.07877730  0.02635878  0.02601933       0.016
  -0.07877730  0.02635878  0.02601933       0.016
  -0.05251820  0.02635878  0.02601933       0.016
  -0.02625910  0.02635878  0.02601933       0.016
   0.00000000  0.05271757  0.02601933       0.016
   0.02625910  0.05271757  0.02601933       0.016
   0.05251820  0.05271757  0.02601933       0.016
   0.07877730  0.05271757  0.02601933       0.016
  -0.07877730  0.05271757  0.02601933       0.016
  -0.05251820  0.05271757  0.02601933       0.016
  -0.02625910  0.05271757  0.02601933       0.016
   0.00000000  0.07907635  0.02601933       0.016
   0.02625910  0.07907635  0.02601933       0.016
   0.05251820  0.07907635  0.02601933       0.016
   0.07877730  0.07907635  0.02601933       0.016
  -0.07877730  0.07907635  0.02601933       0.016
  -0.05251820  0.07907635  0.02601933       0.016
  -0.02625910  0.07907635  0.02601933       0.016
   0.00000000  0.00000000  0.05203866       0.008
   0.02625910  0.00000000  0.05203866       0.008
   0.05251820  0.00000000  0.05203866       0.008
   0.07877730  0.00000000  0.05203866       0.008
  -0.07877730  0.00000000  0.05203866       0.008
  -0.05251820  0.00000000  0.05203866       0.008
  -0.02625910  0.00000000  0.05203866       0.008
   0.00000000  0.02635878  0.05203866       0.016
   0.02625910  0.02635878  0.05203866       0.016
   0.05251820  0.02635878  0.05203866       0.016
   0.07877730  0.02635878  0.05203866       0.016
  -0.07877730  0.02635878  0.05203866       0.016
  -0.05251820  0.02635878  0.05203866       0.016
  -0.02625910  0.02635878  0.05203866       0.016
   0.00000000  0.05271757  0.05203866       0.016
   0.02625910  0.05271757  0.05203866       0.016
   0.05251820  0.05271757  0.05203866       0.016
   0.07877730  0.05271757  0.05203866       0.016
  -0.07877730  0.05271757  0.05203866       0.016
  -0.05251820  0.05271757  0.05203866       0.016
  -0.02625910  0.05271757  0.05203866       0.016
   0.00000000  0.07907635  0.05203866       0.016
   0.02625910  0.07907635  0.05203866       0.016
   0.05251820  0.07907635  0.05203866       0.016
   0.07877730  0.07907635  0.05203866       0.016
  -0.07877730  0.07907635  0.05203866       0.016
  -0.05251820  0.07907635  0.05203866       0.016
  -0.02625910  0.07907635  0.05203866       0.016

 k-points in reciprocal lattice and weights: Automatic kpoint scheme                 
   0.00000000  0.00000000  0.00000000       0.004
   0.14285714  0.00000000  0.00000000       0.008
   0.28571429  0.00000000  0.00000000       0.008
   0.42857143  0.00000000  0.00000000       0.008
   0.00000000  0.14285714  0.00000000       0.008
   0.14285714  0.14285714  0.00000000       0.016
   0.28571429  0.14285714  0.00000000       0.016
   0.42857143  0.14285714  0.00000000       0.016
   0.00000000  0.28571429  0.00000000       0.008
   0.14285714  0.28571429  0.00000000       0.016
   0.28571429  0.28571429  0.00000000       0.016
   0.42857143  0.28571429  0.00000000       0.016
   0.00000000  0.42857143  0.00000000       0.008
   0.14285714  0.42857143  0.00000000       0.016
   0.28571429  0.42857143  0.00000000       0.016
   0.42857143  0.42857143  0.00000000       0.016
   0.00000000  0.00000000  0.20000000       0.008
   0.14285714  0.00000000  0.20000000       0.008
   0.28571429  0.00000000  0.20000000       0.008
   0.42857143  0.00000000  0.20000000       0.008
  -0.42857143  0.00000000  0.20000000       0.008
  -0.28571429  0.00000000  0.20000000       0.008
  -0.14285714  0.00000000  0.20000000       0.008
   0.00000000  0.14285714  0.20000000       0.016
   0.14285714  0.14285714  0.20000000       0.016
   0.28571429  0.14285714  0.20000000       0.016
   0.42857143  0.14285714  0.20000000       0.016
  -0.42857143  0.14285714  0.20000000       0.016
  -0.28571429  0.14285714  0.20000000       0.016
  -0.14285714  0.14285714  0.20000000       0.016
   0.00000000  0.28571429  0.20000000       0.016
   0.14285714  0.28571429  0.20000000       0.016
   0.28571429  0.28571429  0.20000000       0.016
   0.42857143  0.28571429  0.20000000       0.016
  -0.42857143  0.28571429  0.20000000       0.016
  -0.28571429  0.28571429  0.20000000       0.016
  -0.14285714  0.28571429  0.20000000       0.016
   0.00000000  0.42857143  0.20000000       0.016
   0.14285714  0.42857143  0.20000000       0.016
   0.28571429  0.42857143  0.20000000       0.016
   0.42857143  0.42857143  0.20000000       0.016
  -0.42857143  0.42857143  0.20000000       0.016
  -0.28571429  0.42857143  0.20000000       0.016
  -0.14285714  0.42857143  0.20000000       0.016
   0.00000000  0.00000000  0.40000000       0.008
   0.14285714  0.00000000  0.40000000       0.008
   0.28571429  0.00000000  0.40000000       0.008
   0.42857143  0.00000000  0.40000000       0.008
  -0.42857143  0.00000000  0.40000000       0.008
  -0.28571429  0.00000000  0.40000000       0.008
  -0.14285714  0.00000000  0.40000000       0.008
   0.00000000  0.14285714  0.40000000       0.016
   0.14285714  0.14285714  0.40000000       0.016
   0.28571429  0.14285714  0.40000000       0.016
   0.42857143  0.14285714  0.40000000       0.016
  -0.42857143  0.14285714  0.40000000       0.016
  -0.28571429  0.14285714  0.40000000       0.016
  -0.14285714  0.14285714  0.40000000       0.016
   0.00000000  0.28571429  0.40000000       0.016
   0.14285714  0.28571429  0.40000000       0.016
   0.28571429  0.28571429  0.40000000       0.016
   0.42857143  0.28571429  0.40000000       0.016
  -0.42857143  0.28571429  0.40000000       0.016
  -0.28571429  0.28571429  0.40000000       0.016
  -0.14285714  0.28571429  0.40000000       0.016
   0.00000000  0.42857143  0.40000000       0.016
   0.14285714  0.42857143  0.40000000       0.016
   0.28571429  0.42857143  0.40000000       0.016
   0.42857143  0.42857143  0.40000000       0.016
  -0.42857143  0.42857143  0.40000000       0.016
  -0.28571429  0.42857143  0.40000000       0.016
  -0.14285714  0.42857143  0.40000000       0.016

 position of ions in fractional coordinates (direct lattice) 
   0.99250048  0.03600951  0.25000000
   0.00749952  0.96399049  0.75000000
   0.49250048  0.46399049  0.75000000
   0.50749952  0.53600951  0.25000000
   0.50000000  0.00000000  0.00000000
   0.00000000  0.50000000  0.00000000
   0.50000000  0.00000000  0.50000000
   0.00000000  0.50000000  0.50000000
   0.72445968  0.28299979  0.03794195
   0.71769533  0.27623543  0.46205805
   0.27554032  0.71700024  0.96205808
   0.28230467  0.72376460  0.53794192
   0.21769533  0.22376457  0.96205808
   0.22445968  0.21700021  0.53794192
   0.78230467  0.77623540  0.03794195
   0.77554032  0.78299976  0.46205805
   0.56829709  0.00630675  0.74661782
   0.06829712  0.49369325  0.24661782
   0.93170291  0.50630678  0.75338218
   0.43170288  0.99369322  0.25338218

 position of ions in cartesian coordinates  (Angst):
   5.39949127  0.19516135  1.92164812
   0.04079956  5.22455525  5.76494436
   2.67934586  2.51469695  5.76494436
   2.76094498  2.90501965  1.92164812
   2.72014542 -0.00000000  0.00000000
   0.00000000  2.70985830  0.00000000
   2.72014542 -0.00000000  3.84329624
   0.00000000  2.70985830  3.84329624
   3.94127138  1.53377863  0.29164428
   3.90447131  1.49711773  3.55165194
   1.49901946  3.88593813  7.39494841
   1.53581953  3.92259903  4.13494032
   1.18432589  1.21274057  7.39494841
   1.22112596  1.17607967  4.13494032
   4.25596495  4.20697587  0.29164428
   4.21916488  4.24363677  3.55165194
   3.09170145  0.03418081  5.73894693
   0.37155619  2.67567749  1.89565069
   5.06873481  2.74403927  5.79094180
   2.34858923  5.38553563  1.94764555



--------------------------------------------------------------------------------------------------------


 k-point  1 :   0.0000 0.0000 0.0000  plane waves:    6633
 k-point  2 :   0.1429 0.0000 0.0000  plane waves:    6639
 k-point  3 :   0.2857 0.0000 0.0000  plane waves:    6643
 k-point  4 :   0.4286 0.0000 0.0000  plane waves:    6648
 k-point  5 :   0.0000 0.1429 0.0000  plane waves:    6649
 k-point  6 :   0.1429 0.1429 0.0000  plane waves:    6646
 k-point  7 :   0.2857 0.1429 0.0000  plane waves:    6632
 k-point  8 :   0.4286 0.1429 0.0000  plane waves:    6633
 k-point  9 :   0.0000 0.2857 0.0000  plane waves:    6647
 k-point 10 :   0.1429 0.2857 0.0000  plane waves:    6636
 k-point 11 :   0.2857 0.2857 0.0000  plane waves:    6630
 k-point 12 :   0.4286 0.2857 0.0000  plane waves:    6641
 k-point 13 :   0.0000 0.4286 0.0000  plane waves:    6654
 k-point 14 :   0.1429 0.4286 0.0000  plane waves:    6631
 k-point 15 :   0.2857 0.4286 0.0000  plane waves:    6654
 k-point 16 :   0.4286 0.4286 0.0000  plane waves:    6640
 k-point 17 :   0.0000 0.0000 0.2000  plane waves:    6653
 k-point 18 :   0.1429 0.0000 0.2000  plane waves:    6653
 k-point 19 :   0.2857 0.0000 0.2000  plane waves:    6643
 k-point 20 :   0.4286 0.0000 0.2000  plane waves:    6649
 k-point 21 :  -0.4286 0.0000 0.2000  plane waves:    6649
 k-point 22 :  -0.2857 0.0000 0.2000  plane waves:    6643
 k-point 23 :  -0.1429 0.0000 0.2000  plane waves:    6653
 k-point 24 :   0.0000 0.1429 0.2000  plane waves:    6646
 k-point 25 :   0.1429 0.1429 0.2000  plane waves:    6649
 k-point 26 :   0.2857 0.1429 0.2000  plane waves:    6639
 k-point 27 :   0.4286 0.1429 0.2000  plane waves:    6636
 k-point 28 :  -0.4286 0.1429 0.2000  plane waves:    6636
 k-point 29 :  -0.2857 0.1429 0.2000  plane waves:    6639
 k-point 30 :  -0.1429 0.1429 0.2000  plane waves:    6649
 k-point 31 :   0.0000 0.2857 0.2000  plane waves:    6647
 k-point 32 :   0.1429 0.2857 0.2000  plane waves:    6641
 k-point 33 :   0.2857 0.2857 0.2000  plane waves:    6628
 k-point 34 :   0.4286 0.2857 0.2000  plane waves:    6628
 k-point 35 :  -0.4286 0.2857 0.2000  plane waves:    6628
 k-point 36 :  -0.2857 0.2857 0.2000  plane waves:    6628
 k-point 37 :  -0.1429 0.2857 0.2000  plane waves:    6641
 k-point 38 :   0.0000 0.4286 0.2000  plane waves:    6640
 k-point 39 :   0.1429 0.4286 0.2000  plane waves:    6628
 k-point 40 :   0.2857 0.4286 0.2000  plane waves:    6634
 k-point 41 :   0.4286 0.4286 0.2000  plane waves:    6632
 k-point 42 :  -0.4286 0.4286 0.2000  plane waves:    6632
 k-point 43 :  -0.2857 0.4286 0.2000  plane waves:    6634
 k-point 44 :  -0.1429 0.4286 0.2000  plane waves:    6628
 k-point 45 :   0.0000 0.0000 0.4000  plane waves:    6658
 k-point 46 :   0.1429 0.0000 0.4000  plane waves:    6656
 k-point 47 :   0.2857 0.0000 0.4000  plane waves:    6639
 k-point 48 :   0.4286 0.0000 0.4000  plane waves:    6633
 k-point 49 :  -0.4286 0.0000 0.4000  plane waves:    6633
 k-point 50 :  -0.2857 0.0000 0.4000  plane waves:    6639
 k-point 51 :  -0.1429 0.0000 0.4000  plane waves:    6656
 k-point 52 :   0.0000 0.1429 0.4000  plane waves:    6656
 k-point 53 :   0.1429 0.1429 0.4000  plane waves:    6655
 k-point 54 :   0.2857 0.1429 0.4000  plane waves:    6655
 k-point 55 :   0.4286 0.1429 0.4000  plane waves:    6628
 k-point 56 :  -0.4286 0.1429 0.4000  plane waves:    6628
 k-point 57 :  -0.2857 0.1429 0.4000  plane waves:    6655
 k-point 58 :  -0.1429 0.1429 0.4000  plane waves:    6655
 k-point 59 :   0.0000 0.2857 0.4000  plane waves:    6632
 k-point 60 :   0.1429 0.2857 0.4000  plane waves:    6658
 k-point 61 :   0.2857 0.2857 0.4000  plane waves:    6634
 k-point 62 :   0.4286 0.2857 0.4000  plane waves:    6620
 k-point 63 :  -0.4286 0.2857 0.4000  plane waves:    6620
 k-point 64 :  -0.2857 0.2857 0.4000  plane waves:    6634
 k-point 65 :  -0.1429 0.2857 0.4000  plane waves:    6658
 k-point 66 :   0.0000 0.4286 0.4000  plane waves:    6635
 k-point 67 :   0.1429 0.4286 0.4000  plane waves:    6633
 k-point 68 :   0.2857 0.4286 0.4000  plane waves:    6626
 k-point 69 :   0.4286 0.4286 0.4000  plane waves:    6614
 k-point 70 :  -0.4286 0.4286 0.4000  plane waves:    6614
 k-point 71 :  -0.2857 0.4286 0.4000  plane waves:    6626
 k-point 72 :  -0.1429 0.4286 0.4000  plane waves:    6633

 maximum and minimum number of plane-waves per node :      3343     3301

 maximum number of plane-waves:      6658
 maximum index in each direction: 
   IXMAX=   10   IYMAX=   10   IZMAX=   14
   IXMIN=  -10   IYMIN=  -10   IZMIN=  -15


 parallel 3D FFT for wavefunctions:
    minimum data exchange during FFTs selected (reduces bandwidth)
 parallel 3D FFT for charge:
    minimum data exchange during FFTs selected (reduces bandwidth)


 total amount of memory used by VASP MPI-rank0   665838. kBytes
=======================================================================

   base      :      30000. kBytes
   nonl-proj :     104830. kBytes
   fftplans  :       7476. kBytes
   grid      :      13770. kBytes
   one-center:        155. kBytes
   wavefun   :     509607. kBytes

     INWAV:  cpu time    0.0000: real time    0.0001
 Broyden mixing: mesh for mixing (old mesh)
   NGX = 21   NGY = 21   NGZ = 29
  (NGX  = 64   NGY  = 64   NGZ  = 96)
  gives a total of  12789 points

 initial charge density was supplied:
 charge density of overlapping atoms calculated
 number of electron     180.0000000 magnetization 
 keeping initial charge density in first step


--------------------------------------------------------------------------------------------------------


 Maximum index for augmentation-charges         8171 (set IRDMAX)


--------------------------------------------------------------------------------------------------------


 First call to EWALD:  gamma=   0.291
 Maximum number of real-space cells 3x 3x 2
 Maximum number of reciprocal cells 3x 2x 3

    FEWALD:  cpu time    0.0000: real time    0.0014


--------------------------------------- Iteration      1(   1)  ---------------------------------------


    POTLOK:  cpu time    0.0320: real time    0.1608
    SETDIJ:  cpu time    0.0160: real time    0.0137
     EDDAV:  cpu time   18.0680: real time   18.0696
 BZINTS: Fermi energy: 23.929607;180.000000 electrons
         Band energy: 433.276802;  BLOECHL correction: -0.090647
       DOS:  cpu time   32.6240: real time   32.6243
    --------------------------------------------
      LOOP:  cpu time   50.7400: real time   50.8684

 eigenvalue-minimisations  : 20480
 total energy-change (2. order) : 0.2249100E+04  (-0.1021798E+05)
 number of electron     180.0000000 magnetization 
 augmentation part      180.0000000 magnetization 

 Free energy of the ion-electron system (eV)
  ---------------------------------------------------
  alpha Z        PSCENC =      1340.43062464
  Ewald energy   TEWEN  =    -15631.08598208
  -Hartree energ DENC   =     -7073.23835206
  -exchange      EXHF   =         0.00000000
  -V(xc)+E(xc)   XCENC  =       808.03320237
  PAW double counting   =     18618.48552547   -19090.84750913
  entropy T*S    EENTRO =         0.00000000
  eigenvalues    EBANDS =       433.27680223
  atomic energy  EATOM  =     22844.04564258
  Solvation  Ediel_sol  =         0.00000000
  ---------------------------------------------------
  free energy    TOTEN  =      2249.09995403 eV

  energy without entropy =     2249.09995403  energy(sigma->0) =     2249.09995403


--------------------------------------------------------------------------------------------------------




--------------------------------------- Iteration      1(   2)  ---------------------------------------


     EDDAV:  cpu time   16.6560: real time   17.3369
 BZINTS: Fermi energy: 10.197218;180.000000 electrons
         Band energy:***********;  BLOECHL correction: -0.027487
       DOS:  cpu time    4.9480: real time    4.9476
    --------------------------------------------
      LOOP:  cpu time   21.6040: real time   22.2845

 eigenvalue-minimisations  : 19144
 total energy-change (2. order) :-0.2191125E+04  (-0.2048253E+04)
 number of electron     180.0000000 magnetization 
 augmentation part      180.0000000 magnetization 

 Free energy of the ion-electron system (eV)
  ---------------------------------------------------
  alpha Z        PSCENC =      1340.43062464
  Ewald energy   TEWEN  =    -15631.08598208
  -Hartree energ DENC   =     -7073.23835206
  -exchange      EXHF   =         0.00000000
  -V(xc)+E(xc)   XCENC  =       808.03320237
  PAW double counting   =     18618.48552547   -19090.84750913
  entropy T*S    EENTRO =         0.00000000
  eigenvalues    EBANDS =     -1757.84813634
  atomic energy  EATOM  =     22844.04564258
  Solvation  Ediel_sol  =         0.00000000
  ---------------------------------------------------
  free energy    TOTEN  =        57.97501546 eV

  energy without entropy =       57.97501546  energy(sigma->0) =       57.97501546


--------------------------------------------------------------------------------------------------------




--------------------------------------- Iteration      1(   3)  ---------------------------------------


     EDDAV:  cpu time   18.0120: real time   18.9984
 BZINTS: Fermi energy:  8.380849;180.000000 electrons
         Band energy:***********;  BLOECHL correction: -0.028124
       DOS:  cpu time    1.0520: real time    1.0502
    --------------------------------------------
      LOOP:  cpu time   19.0640: real time   20.0486

 eigenvalue-minimisations  : 21640
 total energy-change (2. order) :-0.2252192E+03  (-0.2143472E+03)
 number of electron     180.0000000 magnetization 
 augmentation part      180.0000000 magnetization 

 Free energy of the ion-electron system (eV)
  ---------------------------------------------------
  alpha Z        PSCENC =      1340.43062464
  Ewald energy   TEWEN  =    -15631.08598208
  -Hartree energ DENC   =     -7073.23835206
  -exchange      EXHF   =         0.00000000
  -V(xc)+E(xc)   XCENC  =       808.03320237
  PAW double counting   =     18618.48552547   -19090.84750913
  entropy T*S    EENTRO =         0.00000000
  eigenvalues    EBANDS =     -1983.06729202
  atomic energy  EATOM  =     22844.04564258
  Solvation  Ediel_sol  =         0.00000000
  ---------------------------------------------------
  free energy    TOTEN  =      -167.24414022 eV

  energy without entropy =     -167.24414022  energy(sigma->0) =     -167.24414022


--------------------------------------------------------------------------------------------------------




--------------------------------------- Iteration      1(   4)  ---------------------------------------


     EDDAV:  cpu time   20.7440: real time   20.7456
 BZINTS: Fermi energy:  8.312780;180.000000 electrons
         Band energy:***********;  BLOECHL correction: -0.029347
       DOS:  cpu time    0.9240: real time    0.9252
    --------------------------------------------
      LOOP:  cpu time   21.6680: real time   21.6708

 eigenvalue-minimisations  : 24544
 total energy-change (2. order) :-0.1035076E+02  (-0.1019693E+02)
 number of electron     180.0000000 magnetization 
 augmentation part      180.0000000 magnetization 

 Free energy of the ion-electron system (eV)
  ---------------------------------------------------
  alpha Z        PSCENC =      1340.43062464
  Ewald energy   TEWEN  =    -15631.08598208
  -Hartree energ DENC   =     -7073.23835206
  -exchange      EXHF   =         0.00000000
  -V(xc)+E(xc)   XCENC  =       808.03320237
  PAW double counting   =     18618.48552547   -19090.84750913
  entropy T*S    EENTRO =         0.00000000
  eigenvalues    EBANDS =     -1993.41805043
  atomic energy  EATOM  =     22844.04564258
  Solvation  Ediel_sol  =         0.00000000
  ---------------------------------------------------
  free energy    TOTEN  =      -177.59489864 eV

  energy without entropy =     -177.59489864  energy(sigma->0) =     -177.59489864


--------------------------------------------------------------------------------------------------------




--------------------------------------- Iteration      1(   5)  ---------------------------------------


     EDDAV:  cpu time   22.5080: real time   22.5092
 BZINTS: Fermi energy:  8.309822;180.000000 electrons
         Band energy:***********;  BLOECHL correction: -0.029410
       DOS:  cpu time    0.8840: real time    0.8825
    CHARGE:  cpu time    0.5640: real time    0.5637
    MIXING:  cpu time    0.0040: real time    0.0045
    --------------------------------------------
      LOOP:  cpu time   23.9600: real time   23.9599

 eigenvalue-minimisations  : 27360
 total energy-change (2. order) :-0.5950918E+00  (-0.5929177E+00)
 number of electron     180.0000196 magnetization 
 augmentation part       44.7988146 magnetization 

 Broyden mixing:
  rms(total) = 0.50946E+01    rms(broyden)= 0.50895E+01
  rms(prec ) = 0.71799E+01
  weight for this iteration     100.00

 Free energy of the ion-electron system (eV)
  ---------------------------------------------------
  alpha Z        PSCENC =      1340.43062464
  Ewald energy   TEWEN  =    -15631.08598208
  -Hartree energ DENC   =     -7073.23835206
  -exchange      EXHF   =         0.00000000
  -V(xc)+E(xc)   XCENC  =       808.03320237
  PAW double counting   =     18618.48552547   -19090.84750913
  entropy T*S    EENTRO =         0.00000000
  eigenvalues    EBANDS =     -1994.01314224
  atomic energy  EATOM  =     22844.04564258
  Solvation  Ediel_sol  =         0.00000000
  ---------------------------------------------------
  free energy    TOTEN  =      -178.18999044 eV

  energy without entropy =     -178.18999044  energy(sigma->0) =     -178.18999044


--------------------------------------------------------------------------------------------------------




--------------------------------------- Iteration      1(   6)  ---------------------------------------


    POTLOK:  cpu time    0.1080: real time    0.1071
    SETDIJ:  cpu time    0.0120: real time    0.0141
     EDDAV:  cpu time   20.0760: real time   20.0762
 BZINTS: Fermi energy:  4.334735;180.000000 electrons
         Band energy:***********;  BLOECHL correction: -0.029440
       DOS:  cpu time    0.2360: real time    0.2346
    CHARGE:  cpu time    0.5640: real time    0.5647
    MIXING:  cpu time    0.0080: real time    0.0072
    --------------------------------------------
      LOOP:  cpu time   21.0040: real time   21.0039

 eigenvalue-minimisations  : 24112
 total energy-change (2. order) :-0.2993232E+01  (-0.2778463E+02)
 number of electron     180.0000160 magnetization 
 augmentation part       52.3299031 magnetization 

 Broyden mixing:
  rms(total) = 0.10567E+02    rms(broyden)= 0.10566E+02
  rms(prec ) = 0.11983E+02
  weight for this iteration     100.00

 eigenvalues of (default mixing * dielectric matrix)
  average eigenvalue GAMMA=   0.1865
  0.1865

 Free energy of the ion-electron system (eV)
  ---------------------------------------------------
  alpha Z        PSCENC =      1340.43062464
  Ewald energy   TEWEN  =    -15631.08598208
  -Hartree energ DENC   =     -6740.52819023
  -exchange      EXHF   =         0.00000000
  -V(xc)+E(xc)   XCENC  =       806.01992867
  PAW double counting   =     19155.50888049   -19601.95415930
  entropy T*S    EENTRO =         0.00000000
  eigenvalues    EBANDS =     -2353.61996764
  atomic energy  EATOM  =     22844.04564258
  Solvation  Ediel_sol  =         0.00000000
  ---------------------------------------------------
  free energy    TOTEN  =      -181.18322288 eV

  energy without entropy =     -181.18322288  energy(sigma->0) =     -181.18322288


--------------------------------------------------------------------------------------------------------




--------------------------------------- Iteration      1(   7)  ---------------------------------------


    POTLOK:  cpu time    0.1040: real time    0.1057
    SETDIJ:  cpu time    0.0160: real time    0.0137
     EDDAV:  cpu time   19.6120: real time   19.6155
 BZINTS: Fermi energy:  4.433372;180.000000 electrons
         Band energy:***********;  BLOECHL correction: -0.065501
       DOS:  cpu time    0.2360: real time    0.2361
    CHARGE:  cpu time    0.5560: real time    0.5564
    MIXING:  cpu time    0.0080: real time    0.0049
    --------------------------------------------
      LOOP:  cpu time   20.5320: real time   20.5323

 eigenvalue-minimisations  : 23448
 total energy-change (2. order) : 0.3699885E+02  (-0.6367619E+01)
 number of electron     180.0000184 magnetization 
 augmentation part       48.1253330 magnetization 

 Broyden mixing:
  rms(total) = 0.25007E+01    rms(broyden)= 0.24997E+01
  rms(prec ) = 0.29705E+01
  weight for this iteration     100.00

 eigenvalues of (default mixing * dielectric matrix)
  average eigenvalue GAMMA=   0.5992
  0.7381  0.4602

 Free energy of the ion-electron system (eV)
  ---------------------------------------------------
  alpha Z        PSCENC =      1340.43062464
  Ewald energy   TEWEN  =    -15631.08598208
  -Hartree energ DENC   =     -6918.97493277
  -exchange      EXHF   =         0.00000000
  -V(xc)+E(xc)   XCENC  =       809.90681689
  PAW double counting   =     20141.67261799   -20625.47106521
  entropy T*S    EENTRO =         0.00000000
  eigenvalues    EBANDS =     -2104.70809543
  atomic energy  EATOM  =     22844.04564258
  Solvation  Ediel_sol  =         0.00000000
  ---------------------------------------------------
  free energy    TOTEN  =      -144.18437339 eV

  energy without entropy =     -144.18437339  energy(sigma->0) =     -144.18437339


--------------------------------------------------------------------------------------------------------




--------------------------------------- Iteration      1(   8)  ---------------------------------------


    POTLOK:  cpu time    0.1920: real time    0.1928
    SETDIJ:  cpu time    0.0320: real time    0.0329
     EDDAV:  cpu time   21.7800: real time   21.7792
 BZINTS: Fermi energy:  5.104385;180.000000 electrons
         Band energy:***********;  BLOECHL correction: -0.042671
       DOS:  cpu time    0.2320: real time    0.2337
    CHARGE:  cpu time    0.5600: real time    0.5580
    MIXING:  cpu time    0.0040: real time    0.0046
    --------------------------------------------
      LOOP:  cpu time   22.8000: real time   22.8012

 eigenvalue-minimisations  : 26624
 total energy-change (2. order) : 0.1471229E+01  (-0.1531381E+01)
 number of electron     180.0000194 magnetization 
 augmentation part       46.6414336 magnetization 

 Broyden mixing:
  rms(total) = 0.13232E+01    rms(broyden)= 0.13212E+01
  rms(prec ) = 0.16410E+01
  weight for this iteration     100.00

 eigenvalues of (default mixing * dielectric matrix)
  average eigenvalue GAMMA=   0.6619
  1.0610  0.4623  0.4623

 Free energy of the ion-electron system (eV)
  ---------------------------------------------------
  alpha Z        PSCENC =      1340.43062464
  Ewald energy   TEWEN  =    -15631.08598208
  -Hartree energ DENC   =     -6956.43915763
  -exchange      EXHF   =         0.00000000
  -V(xc)+E(xc)   XCENC  =       809.88701434
  PAW double counting   =     20885.02483170   -21385.93638934
  entropy T*S    EENTRO =         0.00000000
  eigenvalues    EBANDS =     -2048.63972829
  atomic energy  EATOM  =     22844.04564258
  Solvation  Ediel_sol  =         0.00000000
  ---------------------------------------------------
  free energy    TOTEN  =      -142.71314407 eV

  energy without entropy =     -142.71314407  energy(sigma->0) =     -142.71314407


--------------------------------------------------------------------------------------------------------




--------------------------------------- Iteration      1(   9)  ---------------------------------------


    POTLOK:  cpu time    0.1040: real time    0.1043
    SETDIJ:  cpu time    0.0120: real time    0.0124
     EDDAV:  cpu time   20.8040: real time   20.8039
 BZINTS: Fermi energy:  5.033498;180.000000 electrons
         Band energy:***********;  BLOECHL correction: -0.032946
       DOS:  cpu time    0.2320: real time    0.2327
    CHARGE:  cpu time    0.5640: real time    0.5630
    MIXING:  cpu time    0.0040: real time    0.0051
    --------------------------------------------
      LOOP:  cpu time   21.7200: real time   21.7214

 eigenvalue-minimisations  : 25256
 total energy-change (2. order) :-0.6121617E+00  (-0.9524076E+00)
 number of electron     180.0000191 magnetization 
 augmentation part       46.7825068 magnetization 

 Broyden mixing:
  rms(total) = 0.18055E+01    rms(broyden)= 0.18043E+01
  rms(prec ) = 0.24641E+01
  weight for this iteration     100.00

 eigenvalues of (default mixing * dielectric matrix)
  average eigenvalue GAMMA=   0.8702
  2.2744  0.5543  0.4800  0.1720

 Free energy of the ion-electron system (eV)
  ---------------------------------------------------
  alpha Z        PSCENC =      1340.43062464
  Ewald energy   TEWEN  =    -15631.08598208
  -Hartree energ DENC   =     -6943.92089378
  -exchange      EXHF   =         0.00000000
  -V(xc)+E(xc)   XCENC  =       809.66395097
  PAW double counting   =     21202.50717523   -21707.39543089
  entropy T*S    EENTRO =         0.00000000
  eigenvalues    EBANDS =     -2057.57039239
  atomic energy  EATOM  =     22844.04564258
  Solvation  Ediel_sol  =         0.00000000
  ---------------------------------------------------
  free energy    TOTEN  =      -143.32530572 eV

  energy without entropy =     -143.32530572  energy(sigma->0) =     -143.32530572


--------------------------------------------------------------------------------------------------------




--------------------------------------- Iteration      1(  10)  ---------------------------------------


    POTLOK:  cpu time    0.1040: real time    0.1024
    SETDIJ:  cpu time    0.0120: real time    0.0124
     EDDAV:  cpu time   20.3520: real time   20.3554
 BZINTS: Fermi energy:  4.693788;180.000000 electrons
         Band energy:***********;  BLOECHL correction: -0.055950
       DOS:  cpu time    0.2360: real time    0.2324
    CHARGE:  cpu time    0.6640: real time    0.6654
    MIXING:  cpu time    0.0040: real time    0.0054
    --------------------------------------------
      LOOP:  cpu time   21.3720: real time   21.3734

 eigenvalue-minimisations  : 24408
 total energy-change (2. order) : 0.7877608E+00  (-0.4518879E+00)
 number of electron     180.0000188 magnetization 
 augmentation part       47.3169870 magnetization 

 Broyden mixing:
  rms(total) = 0.59085E+00    rms(broyden)= 0.58910E+00
  rms(prec ) = 0.81614E+00
  weight for this iteration     100.00

 eigenvalues of (default mixing * dielectric matrix)
  average eigenvalue GAMMA=   0.8479
  2.2601  0.8628  0.4785  0.4785  0.1598

 Free energy of the ion-electron system (eV)
  ---------------------------------------------------
  alpha Z        PSCENC =      1340.43062464
  Ewald energy   TEWEN  =    -15631.08598208
  -Hartree energ DENC   =     -6916.46824388
  -exchange      EXHF   =         0.00000000
  -V(xc)+E(xc)   XCENC  =       809.37216964
  PAW double counting   =     22018.64163005   -22533.63367860
  entropy T*S    EENTRO =         0.00000000
  eigenvalues    EBANDS =     -2073.83970727
  atomic energy  EATOM  =     22844.04564258
  Solvation  Ediel_sol  =         0.00000000
  ---------------------------------------------------
  free energy    TOTEN  =      -142.53754491 eV

  energy without entropy =     -142.53754491  energy(sigma->0) =     -142.53754491


--------------------------------------------------------------------------------------------------------




--------------------------------------- Iteration      1(  11)  ---------------------------------------


    POTLOK:  cpu time    0.1760: real time    0.1950
    SETDIJ:  cpu time    0.0360: real time    0.0362
     EDDAV:  cpu time   19.4640: real time   19.4668
 BZINTS: Fermi energy:  4.956397;180.000000 electrons
         Band energy:***********;  BLOECHL correction: -0.056210
       DOS:  cpu time    0.2360: real time    0.2345
    CHARGE:  cpu time    0.5560: real time    0.5544
    MIXING:  cpu time    0.0040: real time    0.0056
    --------------------------------------------
      LOOP:  cpu time   20.4720: real time   20.4925

 eigenvalue-minimisations  : 22264
 total energy-change (2. order) : 0.2285992E+00  (-0.5236277E-01)
 number of electron     180.0000191 magnetization 
 augmentation part       46.8868594 magnetization 

 Broyden mixing:
  rms(total) = 0.19988E+00    rms(broyden)= 0.19958E+00
  rms(prec ) = 0.25108E+00
  weight for this iteration     100.00

 eigenvalues of (default mixing * dielectric matrix)
  average eigenvalue GAMMA=   0.8264
  2.2786  0.9283  0.6369  0.4768  0.4768  0.1608

 Free energy of the ion-electron system (eV)
  ---------------------------------------------------
  alpha Z        PSCENC =      1340.43062464
  Ewald energy   TEWEN  =    -15631.08598208
  -Hartree energ DENC   =     -6937.17904516
  -exchange      EXHF   =         0.00000000
  -V(xc)+E(xc)   XCENC  =       809.98184603
  PAW double counting   =     22065.52148642   -22582.76034500
  entropy T*S    EENTRO =         0.00000000
  eigenvalues    EBANDS =     -2051.26317316
  atomic energy  EATOM  =     22844.04564258
  Solvation  Ediel_sol  =         0.00000000
  ---------------------------------------------------
  free energy    TOTEN  =      -142.30894573 eV

  energy without entropy =     -142.30894573  energy(sigma->0) =     -142.30894573


--------------------------------------------------------------------------------------------------------




--------------------------------------- Iteration      1(  12)  ---------------------------------------


    POTLOK:  cpu time    0.1080: real time    0.1077
    SETDIJ:  cpu time    0.0120: real time    0.0115
     EDDAV:  cpu time   22.1040: real time   22.1048
 BZINTS: Fermi energy:  5.006910;180.000000 electrons
         Band energy:***********;  BLOECHL correction: -0.056409
       DOS:  cpu time    0.2240: real time    0.2235
    CHARGE:  cpu time    0.5680: real time    0.5691
    MIXING:  cpu time    0.0080: real time    0.0063
    --------------------------------------------
      LOOP:  cpu time   23.0240: real time   23.0228

 eigenvalue-minimisations  : 26288
 total energy-change (2. order) : 0.7101410E-02  (-0.8285392E-02)
 number of electron     180.0000192 magnetization 
 augmentation part       46.7999488 magnetization 

 Broyden mixing:
  rms(total) = 0.12926E+00    rms(broyden)= 0.12914E+00
  rms(prec ) = 0.13312E+00
  weight for this iteration     100.00

 eigenvalues of (default mixing * dielectric matrix)
  average eigenvalue GAMMA=   1.0175
  2.3621  1.4204  1.4204  0.7900  0.4845  0.4845  0.1608

 Free energy of the ion-electron system (eV)
  ---------------------------------------------------
  alpha Z        PSCENC =      1340.43062464
  Ewald energy   TEWEN  =    -15631.08598208
  -Hartree energ DENC   =     -6940.89609870
  -exchange      EXHF   =         0.00000000
  -V(xc)+E(xc)   XCENC  =       810.05731982
  PAW double counting   =     22085.80318752   -22603.01365529
  entropy T*S    EENTRO =         0.00000000
  eigenvalues    EBANDS =     -2047.64288282
  atomic energy  EATOM  =     22844.04564258
  Solvation  Ediel_sol  =         0.00000000
  ---------------------------------------------------
  free energy    TOTEN  =      -142.30184432 eV

  energy without entropy =     -142.30184432  energy(sigma->0) =     -142.30184432


--------------------------------------------------------------------------------------------------------




--------------------------------------- Iteration      1(  13)  ---------------------------------------


    POTLOK:  cpu time    0.1040: real time    0.1041
    SETDIJ:  cpu time    0.0120: real time    0.0120
     EDDAV:  cpu time   18.6320: real time   19.4228
 BZINTS: Fermi energy:  4.998137;180.000000 electrons
         Band energy:***********;  BLOECHL correction: -0.056675
       DOS:  cpu time    0.2280: real time    0.2290
    CHARGE:  cpu time    0.5960: real time    0.5967
    MIXING:  cpu time    0.0080: real time    0.0071
    --------------------------------------------
      LOOP:  cpu time   19.5800: real time   20.3717

 eigenvalue-minimisations  : 20800
 total energy-change (2. order) :-0.1311352E-02  (-0.1224509E-02)
 number of electron     180.0000191 magnetization 
 augmentation part       46.8260675 magnetization 

 Broyden mixing:
  rms(total) = 0.56344E-01    rms(broyden)= 0.56321E-01
  rms(prec ) = 0.61262E-01
  weight for this iteration     100.00

 eigenvalues of (default mixing * dielectric matrix)
  average eigenvalue GAMMA=   1.0451
  2.4309  1.9768  1.0197  1.0197  0.7826  0.4850  0.4850  0.1608

 Free energy of the ion-electron system (eV)
  ---------------------------------------------------
  alpha Z        PSCENC =      1340.43062464
  Ewald energy   TEWEN  =    -15631.08598208
  -Hartree energ DENC   =     -6941.75541931
  -exchange      EXHF   =         0.00000000
  -V(xc)+E(xc)   XCENC  =       810.12660912
  PAW double counting   =     22124.19227098   -22640.77647732
  entropy T*S    EENTRO =         0.00000000
  eigenvalues    EBANDS =     -2047.48042428
  atomic energy  EATOM  =     22844.04564258
  Solvation  Ediel_sol  =         0.00000000
  ---------------------------------------------------
  free energy    TOTEN  =      -142.30315567 eV

  energy without entropy =     -142.30315567  energy(sigma->0) =     -142.30315567


--------------------------------------------------------------------------------------------------------




--------------------------------------- Iteration      1(  14)  ---------------------------------------


    POTLOK:  cpu time    0.1680: real time    0.2020
    SETDIJ:  cpu time    0.0200: real time    0.0197
     EDDAV:  cpu time   22.8520: real time   22.8535
 BZINTS: Fermi energy:  5.017709;180.000000 electrons
         Band energy:***********;  BLOECHL correction: -0.056450
       DOS:  cpu time    0.2520: real time    0.2494
    CHARGE:  cpu time    1.0440: real time    1.0458
    MIXING:  cpu time    0.0120: real time    0.0100
    --------------------------------------------
      LOOP:  cpu time   24.3480: real time   24.3804

 eigenvalue-minimisations  : 21872
 total energy-change (2. order) : 0.3315774E-03  (-0.3154831E-03)
 number of electron     180.0000192 magnetization 
 augmentation part       46.7993710 magnetization 

 Broyden mixing:
  rms(total) = 0.31208E-01    rms(broyden)= 0.31196E-01
  rms(prec ) = 0.32673E-01
  weight for this iteration     100.00

 eigenvalues of (default mixing * dielectric matrix)
  average eigenvalue GAMMA=   1.0247
  2.3919  2.0286  1.0519  1.0519  0.7825  0.7825  0.4860  0.4860  0.1608

 Free energy of the ion-electron system (eV)
  ---------------------------------------------------
  alpha Z        PSCENC =      1340.43062464
  Ewald energy   TEWEN  =    -15631.08598208
  -Hartree energ DENC   =     -6943.34677639
  -exchange      EXHF   =         0.00000000
  -V(xc)+E(xc)   XCENC  =       810.17161816
  PAW double counting   =     22132.90483287   -22649.58833665
  entropy T*S    EENTRO =         0.00000000
  eigenvalues    EBANDS =     -2045.83444724
  atomic energy  EATOM  =     22844.04564258
  Solvation  Ediel_sol  =         0.00000000
  ---------------------------------------------------
  free energy    TOTEN  =      -142.30282410 eV

  energy without entropy =     -142.30282410  energy(sigma->0) =     -142.30282410


--------------------------------------------------------------------------------------------------------




--------------------------------------- Iteration      1(  15)  ---------------------------------------


    POTLOK:  cpu time    0.1640: real time    0.1657
    SETDIJ:  cpu time    0.0200: real time    0.0185
     EDDAV:  cpu time   19.8520: real time   19.8536
 BZINTS: Fermi energy:  5.018902;180.000000 electrons
         Band energy:***********;  BLOECHL correction: -0.056427
       DOS:  cpu time    0.2360: real time    0.2342
    CHARGE:  cpu time    0.5640: real time    0.5653
    MIXING:  cpu time    0.0080: real time    0.0073
    --------------------------------------------
      LOOP:  cpu time   20.8440: real time   20.8446

 eigenvalue-minimisations  : 23192
 total energy-change (2. order) :-0.7676210E-04  (-0.4658571E-04)
 number of electron     180.0000192 magnetization 
 augmentation part       46.7962628 magnetization 

 Broyden mixing:
  rms(total) = 0.27286E-01    rms(broyden)= 0.27285E-01
  rms(prec ) = 0.30031E-01
  weight for this iteration     100.00

 eigenvalues of (default mixing * dielectric matrix)
  average eigenvalue GAMMA=   1.1229
  2.3015  1.9363  1.9363  1.3585  0.8532  0.8558  0.8558  0.4854  0.4854  0.1608

 Free energy of the ion-electron system (eV)
  ---------------------------------------------------
  alpha Z        PSCENC =      1340.43062464
  Ewald energy   TEWEN  =    -15631.08598208
  -Hartree energ DENC   =     -6943.41881325
  -exchange      EXHF   =         0.00000000
  -V(xc)+E(xc)   XCENC  =       810.17183045
  PAW double counting   =     22133.81701778   -22650.52978742
  entropy T*S    EENTRO =         0.00000000
  eigenvalues    EBANDS =     -2045.73343357
  atomic energy  EATOM  =     22844.04564258
  Solvation  Ediel_sol  =         0.00000000
  ---------------------------------------------------
  free energy    TOTEN  =      -142.30290086 eV

  energy without entropy =     -142.30290086  energy(sigma->0) =     -142.30290086


--------------------------------------------------------------------------------------------------------




--------------------------------------- Iteration      1(  16)  ---------------------------------------


    POTLOK:  cpu time    0.1040: real time    0.1045
    SETDIJ:  cpu time    0.0120: real time    0.0131
     EDDAV:  cpu time   22.6200: real time   27.3023
 BZINTS: Fermi energy:  5.015788;180.000000 electrons
         Band energy:***********;  BLOECHL correction: -0.056517
       DOS:  cpu time    0.0000: real time    0.2492
    CHARGE:  cpu time    0.0000: real time    0.6557
    MIXING:  cpu time    0.0000: real time    0.0082
    --------------------------------------------
      LOOP:  cpu time   22.7360: real time   28.3330

 eigenvalue-minimisations  : 26112
 total energy-change (2. order) : 0.1020261E-03  (-0.1846593E-04)
 number of electron     180.0000192 magnetization 
 augmentation part       46.8019672 magnetization 

 Broyden mixing:
  rms(total) = 0.11400E-01    rms(broyden)= 0.11397E-01
  rms(prec ) = 0.12019E-01
  weight for this iteration     100.00

 eigenvalues of (default mixing * dielectric matrix)
  average eigenvalue GAMMA=   1.1472
  2.4845  2.4845  1.4984  1.4984  0.1608  0.4854  0.4854  0.9041  0.9041  0.8568
  0.8568

 Free energy of the ion-electron system (eV)
  ---------------------------------------------------
  alpha Z        PSCENC =      1340.43062464
[...]
     61       1.3529      2.00000
     62       1.6251      2.00000
     63       1.6518      2.00000
     64       1.7849      2.00000
     65       2.0478      2.00000
     66       2.1365      2.00000
     67       2.2645      2.00000
     68       2.2898      2.00000
     69       2.5780      2.00000
     70       2.6452      2.00000
     71       2.7076      2.00000
     72       2.8060      2.00000
     73       3.0197      2.00000
     74       3.1525      2.00000
     75       3.2077      2.00000
     76       3.3309      2.00000
     77       3.8379      2.00000
     78       3.8871      2.00000
     79       3.9803      2.00000
     80       4.0190      2.00000
     81       4.0684      2.00000
     82       4.0928      2.00000
     83       4.1037      2.00000
     84       4.1410      2.00000
     85       4.3354      2.00000
     86       4.3436      2.00000
     87       4.4055      2.00000
     88       4.4205      2.00000
     89       4.8613      2.01566
     90       4.9850      1.76670
     91       5.0871      0.06188
     92       5.2923     -0.04231
     93       6.0685      0.00000
     94       6.2873      0.00000
     95       6.5033      0.00000
     96       6.6905      0.00000
     97      10.0228      0.00000
     98      10.0315      0.00000
     99      10.2370      0.00000
    100      10.3049      0.00000
    101      10.3941      0.00000
    102      10.5131      0.00000
    103      10.6069      0.00000
    104      10.6426      0.00000
    105      11.2456      0.00000
    106      11.2519      0.00000
    107      11.3664      0.00000
    108      11.5187      0.00000
    109      11.7073      0.00000
    110      11.8509      0.00000
    111      11.9232      0.00000
    112      12.0071      0.00000
    113      12.1619      0.00000
    114      12.2433      0.00000
    115      12.3099      0.00000
    116      12.3794      0.00000
    117      13.9902      0.00000
    118      14.5106      0.00000
    119      14.8417      0.00000
    120      15.2993      0.00000
    121      16.1561      0.00000
    122      16.2330      0.00000
    123      16.7418      0.00000
    124      16.7893      0.00000
    125      17.6176      0.00000
    126      17.8861      0.00000
    127      18.0442      0.00000
    128      18.2222      0.00000

 k-point    72 :      -0.1429    0.4286    0.4000
  band No.  band energies     occupation 
      1     -59.2535      2.00000
      2     -59.2534      2.00000
      3     -59.2379      2.00000
      4     -59.2379      2.00000
      5     -59.2185      2.00000
      6     -59.2184      2.00000
      7     -59.0369      2.00000
      8     -59.0369      2.00000
      9     -59.0260      2.00000
     10     -59.0259      2.00000
     11     -59.0068      2.00000
     12     -59.0067      2.00000
     13     -29.9660      2.00000
     14     -29.9548      2.00000
     15     -29.9490      2.00000
     16     -29.9383      2.00000
     17     -14.1974      2.00000
     18     -14.1705      2.00000
     19     -14.0759      2.00000
     20     -14.0007      2.00000
     21     -13.5169      2.00000
     22     -13.4524      2.00000
     23     -13.4001      2.00000
     24     -13.3205      2.00000
     25     -12.9880      2.00000
     26     -12.9094      2.00000
     27     -12.8958      2.00000
     28     -12.8616      2.00000
     29     -11.5248      2.00000
     30     -11.4776      2.00000
     31     -11.4353      2.00000
     32     -11.3344      2.00000
     33     -11.1240      2.00000
     34     -11.0138      2.00000
     35     -10.9918      2.00000
     36     -10.9240      2.00000
     37     -10.8484      2.00000
     38     -10.8012      2.00000
     39     -10.7073      2.00000
     40     -10.6362      2.00000
     41      -1.1298      2.00000
     42      -0.9766      2.00000
     43      -0.9397      2.00000
     44      -0.7534      2.00000
     45      -0.0926      2.00000
     46      -0.0616      2.00000
     47      -0.0176      2.00000
     48       0.0008      2.00000
     49       0.0640      2.00000
     50       0.1281      2.00000
     51       0.1757      2.00000
     52       0.2222      2.00000
     53       0.3565      2.00000
     54       0.3810      2.00000
     55       0.5706      2.00000
     56       0.6850      2.00000
     57       0.8240      2.00000
     58       0.8325      2.00000
     59       0.9539      2.00000
     60       1.0541      2.00000
     61       1.2289      2.00000
     62       1.2982      2.00000
     63       1.3599      2.00000
     64       1.5238      2.00000
     65       2.3102      2.00000
     66       2.3756      2.00000
     67       2.5045      2.00000
     68       2.5367      2.00000
     69       2.6775      2.00000
     70       2.7163      2.00000
     71       2.8034      2.00000
     72       2.9020      2.00000
     73       3.0389      2.00000
     74       3.1795      2.00000
     75       3.2044      2.00000
     76       3.2891      2.00000
     77       3.8984      2.00000
     78       3.9646      2.00000
     79       3.9746      2.00000
     80       4.0134      2.00000
     81       4.0728      2.00000
     82       4.0827      2.00000
     83       4.1112      2.00000
     84       4.1734      2.00000
     85       4.2874      2.00000
     86       4.3148      2.00000
     87       4.3441      2.00000
     88       4.3693      2.00000
     89       5.0909      0.90629
     90       5.2309     -0.28003
     91       5.3967     -0.00689
     92       5.6891      0.00000
     93       5.8301      0.00000
     94       6.1881      0.00000
     95       6.2224      0.00000
     96       6.4858      0.00000
     97       9.8469      0.00000
     98       9.8822      0.00000
     99      10.1104      0.00000
    100      10.1823      0.00000
    101      10.2360      0.00000
    102      10.3417      0.00000
    103      10.3774      0.00000
    104      10.4935      0.00000
    105      11.0436      0.00000
    106      11.1537      0.00000
    107      11.2150      0.00000
    108      11.2627      0.00000
    109      11.5540      0.00000
    110      11.5860      0.00000
    111      11.6718      0.00000
    112      11.7846      0.00000
    113      12.1957      0.00000
    114      12.2201      0.00000
    115      12.3021      0.00000
    116      12.3213      0.00000
    117      13.6201      0.00000
    118      14.2876      0.00000
    119      14.5360      0.00000
    120      15.1363      0.00000
    121      16.2368      0.00000
    122      16.3137      0.00000
    123      16.9158      0.00000
    124      16.9760      0.00000
    125      18.1604      0.00000
    126      18.2829      0.00000
    127      18.6311      0.00000
    128      18.6809      0.00000


--------------------------------------------------------------------------------------------------------


 soft charge-density along one line, spin component           1
         0         1         2         3         4         5         6         7         8         9
 total charge-density along one line

 pseudopotential strength for first ion, spin component:           1
 -9.949  -6.613   0.002   0.000  -0.001  -0.003  -0.000   0.003
 -6.613   0.475   0.001   0.000  -0.001  -0.000   0.000   0.000
  0.002   0.001 -12.063  -0.000   0.007   4.357   0.000  -0.011
  0.000   0.000  -0.000 -12.066  -0.000   0.000   4.361   0.000
 -0.001  -0.001   0.007  -0.000 -12.057  -0.011   0.000   4.348
 -0.003  -0.000   4.357   0.000  -0.011   8.289  -0.000   0.006
 -0.000   0.000   0.000   4.361   0.000  -0.000   8.287  -0.000
  0.003   0.000  -0.011   0.000   4.348   0.006  -0.000   8.294
  0.003   0.004  -0.000  -0.000   0.001   0.004   0.000  -0.002
 -0.000  -0.000  -0.000   0.001  -0.000   0.000  -0.002   0.000
 -0.001  -0.002  -0.000   0.000   0.000   0.002   0.000   0.003
 -0.000  -0.000  -0.000  -0.000   0.000   0.000   0.006  -0.000
  0.001   0.002  -0.000   0.000  -0.000   0.003  -0.000  -0.003
  0.005   0.005  -0.001  -0.000   0.001   0.005   0.000  -0.003
 -0.000  -0.000  -0.000   0.001  -0.000   0.000  -0.002   0.000
 -0.002  -0.002  -0.000   0.000   0.000   0.002   0.000   0.003
 -0.000  -0.000  -0.000  -0.001   0.000   0.000   0.007  -0.000
  0.002   0.002  -0.001   0.000  -0.000   0.004  -0.000  -0.004
 total augmentation occupancy for first ion, spin component:           1
  1.997  -0.031  -0.000  -0.000   0.000  -0.001  -0.000   0.000   0.004  -0.000  -0.003  -0.000   0.002  -0.007   0.000   0.004
 -0.031   0.622  -0.011  -0.000   0.007   0.006   0.000  -0.005   0.146  -0.002  -0.073  -0.001   0.078  -0.081   0.002   0.041
 -0.000  -0.011   2.010  -0.000   0.001  -0.027   0.000  -0.004   0.037   0.002   0.017  -0.000   0.026  -0.011  -0.001  -0.004
 -0.000  -0.000  -0.000   2.010  -0.000   0.000  -0.026   0.000  -0.000   0.003   0.000   0.052  -0.003   0.000  -0.001  -0.000
  0.000   0.007   0.001  -0.000   2.010  -0.004   0.000  -0.029  -0.000  -0.000   0.045  -0.003  -0.050   0.001  -0.000  -0.015
 -0.001   0.006  -0.027   0.000  -0.004   0.046  -0.000   0.005  -0.084  -0.004  -0.044   0.001  -0.074   0.046   0.002   0.024
 -0.000   0.000   0.000  -0.026   0.000  -0.000   0.044  -0.000   0.001  -0.022  -0.001  -0.127   0.005  -0.000   0.012   0.000
  0.000  -0.005  -0.004   0.000  -0.029   0.005  -0.000   0.049  -0.020   0.001  -0.103   0.005   0.122   0.012  -0.000   0.057
  0.004   0.146   0.037  -0.000  -0.000  -0.084   0.001  -0.020   2.607   0.002   0.191  -0.024  -0.534  -1.448  -0.001  -0.107
 -0.000  -0.002   0.002   0.003  -0.000  -0.004  -0.022   0.001   0.002   3.139   0.002   0.636  -0.006  -0.001  -1.779  -0.001
 -0.003  -0.073   0.017   0.000   0.045  -0.044  -0.001  -0.103   0.191   0.002   2.311  -0.019  -0.260  -0.107  -0.001  -1.275
 -0.000  -0.001  -0.000   0.052  -0.003   0.001  -0.127   0.005  -0.024   0.636  -0.019   2.989   0.002   0.014  -0.366   0.010
  0.002   0.078   0.026  -0.003  -0.050  -0.074   0.005   0.122  -0.534  -0.006  -0.260   0.002   3.171   0.306   0.003   0.150
 -0.007  -0.081  -0.011   0.000   0.001   0.046  -0.000   0.012  -1.448  -0.001  -0.107   0.014   0.306   0.811   0.000   0.061
  0.000   0.002  -0.001  -0.001  -0.000   0.002   0.012  -0.000  -0.001  -1.779  -0.001  -0.366   0.003   0.000   1.017   0.000
  0.004   0.041  -0.004  -0.000  -0.015   0.024   0.000   0.057  -0.107  -0.001  -1.275   0.010   0.150   0.061   0.000   0.710
  0.000   0.001   0.000  -0.016   0.001  -0.000   0.070  -0.003   0.014  -0.366   0.010  -1.693  -0.001  -0.008   0.212  -0.006
 -0.003  -0.043  -0.007   0.001   0.016   0.042  -0.003  -0.067   0.306   0.003   0.150  -0.001  -1.798  -0.177  -0.001  -0.087


------------------------ aborting loop because EDIFF is reached ----------------------------------------


    CHARGE:  cpu time    0.7360: real time    0.7374
    FORLOC:  cpu time    0.0280: real time    0.0280
    FORNL :  cpu time    9.5800: real time    9.5786
    STRESS:  cpu time   14.6920: real time   14.6929
    FORCOR:  cpu time    0.1400: real time    0.1396
    FORHAR:  cpu time    0.0520: real time    0.0528
    MIXING:  cpu time    0.0120: real time    0.0108
    OFIELD:  cpu time    0.0000: real time    0.0000

  FORCE on cell =-STRESS in cart. coord.  units (eV):
  Direction    XX          YY          ZZ          XY          YZ          ZX
  --------------------------------------------------------------------------------------
  Alpha Z  1340.43062  1340.43062  1340.43062
  Ewald   -5161.49270 -5285.33195 -5184.31018     0.00000    -0.00000    -8.85749
  Hartree  2330.15925  2263.16156  2349.77060     0.00000    -0.00000    -5.49408
  E(xc)    -996.03688  -996.28682  -996.27174     0.00000    -0.00000    -0.00733
  Local    -575.05739  -387.95940  -570.25465    -0.00000     0.00000    14.19355
  n-local  -766.79160  -766.09820  -764.41781     0.18367    -0.04084    -0.00809
  augment   808.50353   809.76683   808.14918     0.00000    -0.00000     0.05297
  Kinetic  3020.59432  3022.60446  3016.88323    -1.30520     0.03583     0.12069
  Fock        0.00000     0.00000     0.00000     0.00000     0.00000     0.00000
  -------------------------------------------------------------------------------------
  Total       0.30915     0.28710    -0.02076     0.00000     0.00000     0.00022
  in kB       2.18547     2.02962    -0.14675     0.00000     0.00000     0.00155
  external pressure =        1.36 kB  Pullay stress =        0.00 kB


 VOLUME and BASIS-vectors are now :
 -----------------------------------------------------------------------------
  energy-cutoff  :      550.00
  volume of cell :      226.64
      direct lattice vectors                 reciprocal lattice vectors
     5.440290838 -0.000000000  0.000000000     0.183813702 -0.000000000  0.000000000
     0.000000000  5.419716597  0.000000000     0.000000000  0.184511493 -0.000000000
     0.000000000  0.000000000  7.686592486    -0.000000000  0.000000000  0.130096659

  length of vectors
     5.440290838  5.419716597  7.686592486     0.183813702  0.184511493  0.130096659


 FORCES acting on ions
    electron-ion (+dipol)            ewald-force                    non-local-force                 convergence-correction
 -----------------------------------------------------------------------------------------------
   -.271E+02 0.533E+02 0.700E-01   0.267E+02 -.527E+02 -.687E-01   0.375E+00 -.636E+00 -.682E-02   -.645E-07 -.541E-07 0.161E-07
   0.271E+02 -.533E+02 -.700E-01   -.267E+02 0.527E+02 0.687E-01   -.375E+00 0.636E+00 0.682E-02   0.651E-07 0.534E-07 -.161E-07
   -.271E+02 -.533E+02 0.700E-01   0.267E+02 0.527E+02 -.687E-01   0.375E+00 0.636E+00 -.682E-02   -.651E-07 0.543E-07 0.185E-07
   0.271E+02 0.533E+02 -.700E-01   -.267E+02 -.527E+02 0.687E-01   -.375E+00 -.636E+00 0.682E-02   0.645E-07 -.531E-07 -.185E-07
   -.124E-04 -.559E-05 0.745E-05   0.121E-03 0.543E-04 -.720E-04   0.000E+00 0.000E+00 0.000E+00   -.596E-09 -.980E-09 0.154E-06
   -.362E-05 0.564E-05 0.121E-04   0.351E-04 -.548E-04 -.117E-03   0.000E+00 0.000E+00 0.000E+00   0.618E-09 0.911E-09 0.154E-06
   -.139E-04 -.607E-05 -.806E-05   0.135E-03 0.590E-04 0.779E-04   0.000E+00 0.000E+00 0.000E+00   -.596E-09 -.978E-09 -.154E-06
   -.307E-05 0.523E-05 -.121E-04   0.297E-04 -.508E-04 0.117E-03   0.000E+00 0.000E+00 0.000E+00   0.618E-09 0.908E-09 -.154E-06
   0.510E+02 -.551E+01 -.359E+02   -.527E+02 0.516E+01 0.363E+02   0.140E+01 0.119E-01 -.436E+00   -.371E-06 -.632E-06 -.267E-06
   0.133E+02 -.441E+02 0.365E+02   -.135E+02 0.452E+02 -.370E+02   0.561E+00 -.759E+00 0.493E+00   0.610E-06 0.319E-06 0.281E-06
   -.510E+02 0.551E+01 0.359E+02   0.527E+02 -.516E+01 -.363E+02   -.140E+01 -.119E-01 0.436E+00   0.371E-06 0.632E-06 0.378E-06
   -.133E+02 0.441E+02 -.365E+02   0.135E+02 -.452E+02 0.370E+02   -.561E+00 0.759E+00 -.493E+00   -.610E-06 -.319E-06 -.392E-06
   0.133E+02 0.441E+02 0.365E+02   -.135E+02 -.452E+02 -.370E+02   0.561E+00 0.759E+00 0.493E+00   0.610E-06 -.319E-06 0.392E-06
   0.510E+02 0.551E+01 -.359E+02   -.527E+02 -.516E+01 0.363E+02   0.140E+01 -.119E-01 -.436E+00   -.371E-06 0.632E-06 -.378E-06
   -.133E+02 -.441E+02 -.365E+02   0.135E+02 0.452E+02 0.370E+02   -.561E+00 -.759E+00 -.493E+00   -.610E-06 0.319E-06 -.282E-06
   -.510E+02 -.551E+01 0.359E+02   0.527E+02 0.516E+01 -.363E+02   -.140E+01 0.119E-01 0.436E+00   0.371E-06 -.632E-06 0.267E-06
   -.689E+02 0.137E+02 -.268E+02   0.696E+02 -.161E+02 0.278E+02   -.709E+00 0.234E+01 -.581E+00   -.201E-06 -.157E-06 0.675E-06
   -.689E+02 -.137E+02 -.268E+02   0.696E+02 0.161E+02 0.278E+02   -.709E+00 -.234E+01 -.581E+00   -.201E-06 0.157E-06 0.676E-06
   0.689E+02 0.137E+02 0.268E+02   -.696E+02 -.161E+02 -.278E+02   0.709E+00 0.234E+01 0.581E+00   0.201E-06 -.156E-06 -.674E-06
   0.689E+02 -.137E+02 0.268E+02   -.696E+02 0.161E+02 -.278E+02   0.709E+00 -.234E+01 0.581E+00   0.201E-06 0.156E-06 -.678E-06
 -----------------------------------------------------------------------------------------------
   0.236E-03 0.137E-04 0.577E-04   0.853E-13 -.853E-13 -.107E-12   0.000E+00 -.444E-15 0.333E-15   0.380E-10 0.185E-10 0.276E-11


 POSITION                                       TOTAL-FORCE (eV/Angst)
 -----------------------------------------------------------------------------------
      5.39949      0.19516      1.92165        -0.004414     -0.001735     -0.005529
      0.04080      5.22456      5.76494         0.004414      0.001735      0.005529
      2.67935      2.51470      5.76494        -0.004414      0.001735     -0.005529
      2.76094      2.90502      1.92165         0.004414     -0.001735      0.005529
      2.72015     -0.00000      0.00000         0.000000      0.000000      0.000000
      0.00000      2.70986      0.00000         0.000000      0.000000      0.000000
      2.72015     -0.00000      3.84330         0.000000      0.000000      0.000000
      0.00000      2.70986      3.84330         0.000000      0.000000      0.000000
      3.94127      1.53378      0.29164        -0.325325     -0.336301      0.002144
      3.90447      1.49712      3.55165         0.312375      0.346381     -0.012418
      1.49902      3.88594      7.39495         0.325325      0.336301     -0.002144
      1.53582      3.92260      4.13494        -0.312375     -0.346381      0.012418
      1.18433      1.21274      7.39495         0.312375     -0.346381     -0.012418
      1.22113      1.17608      4.13494        -0.325325      0.336301      0.002144
      4.25596      4.20698      0.29164        -0.312375      0.346381      0.012418
      4.21916      4.24364      3.55165         0.325325     -0.336301     -0.002144
      3.09170      0.03418      5.73895         0.014014     -0.000290      0.452187
      0.37156      2.67568      1.89565         0.014014      0.000290      0.452187
      5.06873      2.74404      5.79094        -0.014014     -0.000290     -0.452187
      2.34859      5.38554      1.94765        -0.014014      0.000290     -0.452187
 -----------------------------------------------------------------------------------
    total drift:                                0.000236      0.000014      0.000058


--------------------------------------------------------------------------------------------------------



  FREE ENERGIE OF THE ION-ELECTRON SYSTEM (eV)
  ---------------------------------------------------
  free  energy   TOTEN  =      -142.30280340 eV

  energy  without entropy=     -142.30280340  energy(sigma->0) =     -142.30280340



--------------------------------------------------------------------------------------------------------


    POTLOK:  cpu time    0.1280: real time    0.1284


--------------------------------------------------------------------------------------------------------


     LOOP+:  cpu time  630.4560: real time  642.3447
    4ORBIT:  cpu time    0.0000: real time    0.0000
 BZINTS: Fermi energy:  5.013919;180.000000 electrons
         Band energy:***********;  BLOECHL correction: -0.056546

 total amount of memory used by VASP MPI-rank0   665838. kBytes
=======================================================================

   base      :      30000. kBytes
   nonl-proj :     104830. kBytes
   fftplans  :       7476. kBytes
   grid      :      13770. kBytes
   one-center:        155. kBytes
   wavefun   :     509607. kBytes

  
  
 General timing and accounting informations for this job:
 ========================================================
  
                  Total CPU time used (sec):      640.128
                            User time (sec):      637.272
                          System time (sec):        2.856
                         Elapsed time (sec):      652.620
  
                   Maximum memory used (kb):      678852.
                   Average memory used (kb):           0.
  
                          Minor page faults:      1277620
                          Major page faults:            0
                 Voluntary context switches:          612
