  20  20   0   0
  0.1051688E+02  0.5330110E-09  0.5321210E-09  0.7416010E-09  0.5000000E-15
   1.0000000000000000E-004
  CAR 
 CaFeO3 R1+0.20                          
     10.00000000     -5.00000000 3001      4.63137863      1.00000000
     -5.000  0.0000E+00  0.8000E+02
     -4.995  0.0000E+00  0.8000E+02
     -4.990  0.0000E+00  0.8000E+02
     -4.985  0.0000E+00  0.8000E+02
     -4.980  0.0000E+00  0.8000E+02
     -4.975  0.0000E+00  0.8000E+02
     -4.970  0.0000E+00  0.8000E+02
     -4.965  0.0000E+00  0.8000E+02
     -4.960  0.0000E+00  0.8000E+02
     -4.955  0.0000E+00  0.8000E+02
     -4.950  0.0000E+00  0.8000E+02
     -4.945  0.0000E+00  0.8000E+02
     -4.940  0.0000E+00  0.8000E+02
     -4.935  0.0000E+00  0.8000E+02
     -4.930  0.0000E+00  0.8000E+02
     -4.925  0.0000E+00  0.8000E+02
     -4.920  0.0000E+00  0.8000E+02
     -4.915  0.0000E+00  0.8000E+02
     -4.910  0.0000E+00  0.8000E+02
     -4.905  0.0000E+00  0.8000E+02
     -4.900  0.0000E+00  0.8000E+02
     -4.895  0.0000E+00  0.8000E+02
     -4.890  0.0000E+00  0.8000E+02
     -4.885  0.0000E+00  0.8000E+02
     -4.880  0.0000E+00  0.8000E+02
     -4.875  0.0000E+00  0.8000E+02
     -4.870  0.0000E+00  0.8000E+02
     -4.865  0.0000E+00  0.8000E+02
     -4.860  0.0000E+00  0.8000E+02
     -4.855  0.0000E+00  0.8000E+02
     -4.850  0.0000E+00  0.8000E+02
     -4.845  0.0000E+00  0.8000E+02
     -4.840  0.0000E+00  0.8000E+02
     -4.835  0.0000E+00  0.8000E+02
     -4.830  0.0000E+00  0.8000E+02
     -4.825  0.0000E+00  0.8000E+02
     -4.820  0.0000E+00  0.8000E+02
     -4.815  0.0000E+00  0.8000E+02
     -4.810  0.0000E+00  0.8000E+02
     -4.805  0.0000E+00  0.8000E+02
     -4.800  0.0000E+00  0.8000E+02
     -4.795  0.0000E+00  0.8000E+02
     -4.790  0.0000E+00  0.8000E+02
     -4.785  0.0000E+00  0.8000E+02
     -4.780  0.0000E+00  0.8000E+02
     -4.775  0.0000E+00  0.8000E+02
     -4.770  0.0000E+00  0.8000E+02
     -4.765  0.0000E+00  0.8000E+02
     -4.760  0.0000E+00  0.8000E+02
     -4.755  0.0000E+00  0.8000E+02
     -4.750  0.0000E+00  0.8000E+02
     -4.745  0.0000E+00  0.8000E+02
     -4.740  0.0000E+00  0.8000E+02
     -4.735  0.0000E+00  0.8000E+02
     -4.730  0.0000E+00  0.8000E+02
     -4.725  0.0000E+00  0.8000E+02
     -4.720  0.0000E+00  0.8000E+02
     -4.715  0.0000E+00  0.8000E+02
     -4.710  0.0000E+00  0.8000E+02
     -4.705  0.0000E+00  0.8000E+02
     -4.700  0.0000E+00  0.8000E+02
     -4.695  0.0000E+00  0.8000E+02
     -4.690  0.0000E+00  0.8000E+02
     -4.685  0.0000E+00  0.8000E+02
     -4.680  0.0000E+00  0.8000E+02
     -4.675  0.0000E+00  0.8000E+02
     -4.670  0.0000E+00  0.8000E+02
     -4.665  0.0000E+00  0.8000E+02
     -4.660  0.0000E+00  0.8000E+02
     -4.655  0.0000E+00  0.8000E+02
     -4.650  0.0000E+00  0.8000E+02
     -4.645  0.0000E+00  0.8000E+02
     -4.640  0.0000E+00  0.8000E+02
     -4.635  0.0000E+00  0.8000E+02
     -4.630  0.0000E+00  0.8000E+02
     -4.625  0.0000E+00  0.8000E+02
     -4.620  0.0000E+00  0.8000E+02
     -4.615  0.0000E+00  0.8000E+02
     -4.610  0.0000E+00  0.8000E+02
     -4.605  0.0000E+00  0.8000E+02
     -4.600  0.0000E+00  0.8000E+02
     -4.595  0.0000E+00  0.8000E+02
     -4.590  0.0000E+00  0.8000E+02
     -4.585  0.0000E+00  0.8000E+02
     -4.580  0.0000E+00  0.8000E+02
     -4.575  0.0000E+00  0.8000E+02
     -4.570  0.0000E+00  0.8000E+02
     -4.565  0.0000E+00  0.8000E+02
     -4.560  0.0000E+00  0.8000E+02
     -4.555  0.0000E+00  0.8000E+02
     -4.550  0.0000E+00  0.8000E+02
     -4.545  0.0000E+00  0.8000E+02
     -4.540  0.0000E+00  0.8000E+02
     -4.535  0.0000E+00  0.8000E+02
     -4.530  0.0000E+00  0.8000E+02
     -4.525  0.0000E+00  0.8000E+02
     -4.520  0.0000E+00  0.8000E+02
     -4.515  0.0000E+00  0.8000E+02
     -4.510  0.0000E+00  0.8000E+02
     -4.505  0.0000E+00  0.8000E+02
     -4.500  0.0000E+00  0.8000E+02
     -4.495  0.0000E+00  0.8000E+02
     -4.490  0.0000E+00  0.8000E+02
     -4.485  0.0000E+00  0.8000E+02
     -4.480  0.0000E+00  0.8000E+02
     -4.475  0.0000E+00  0.8000E+02
     -4.470  0.0000E+00  0.8000E+02
     -4.465  0.0000E+00  0.8000E+02
     -4.460  0.0000E+00  0.8000E+02
     -4.455  0.0000E+00  0.8000E+02
     -4.450  0.0000E+00  0.8000E+02
     -4.445  0.0000E+00  0.8000E+02
     -4.440  0.0000E+00  0.8000E+02
     -4.435  0.0000E+00  0.8000E+02
     -4.430  0.0000E+00  0.8000E+02
     -4.425  0.0000E+00  0.8000E+02
     -4.420  0.0000E+00  0.8000E+02
     -4.415  0.0000E+00  0.8000E+02
     -4.410  0.0000E+00  0.8000E+02
     -4.405  0.0000E+00  0.8000E+02
     -4.400  0.0000E+00  0.8000E+02
     -4.395  0.0000E+00  0.8000E+02
     -4.390  0.0000E+00  0.8000E+02
     -4.385  0.0000E+00  0.8000E+02
     -4.380  0.0000E+00  0.8000E+02
     -4.375  0.0000E+00  0.8000E+02
     -4.370  0.0000E+00  0.8000E+02
     -4.365  0.0000E+00  0.8000E+02
     -4.360  0.0000E+00  0.8000E+02
     -4.355  0.0000E+00  0.8000E+02
     -4.350  0.0000E+00  0.8000E+02
     -4.345  0.0000E+00  0.8000E+02
     -4.340  0.0000E+00  0.8000E+02
     -4.335  0.0000E+00  0.8000E+02
     -4.330  0.0000E+00  0.8000E+02
     -4.325  0.0000E+00  0.8000E+02
     -4.320  0.0000E+00  0.8000E+02
     -4.315  0.0000E+00  0.8000E+02
     -4.310  0.0000E+00  0.8000E+02
     -4.305  0.0000E+00  0.8000E+02
     -4.300  0.0000E+00  0.8000E+02
     -4.295  0.0000E+00  0.8000E+02
     -4.290  0.0000E+00  0.8000E+02
     -4.285  0.0000E+00  0.8000E+02
     -4.280  0.0000E+00  0.8000E+02
     -4.275  0.0000E+00  0.8000E+02
     -4.270  0.0000E+00  0.8000E+02
     -4.265  0.0000E+00  0.8000E+02
     -4.260  0.0000E+00  0.8000E+02
     -4.255  0.0000E+00  0.8000E+02
     -4.250  0.0000E+00  0.8000E+02
     -4.245  0.0000E+00  0.8000E+02
     -4.240  0.0000E+00  0.8000E+02
     -4.235  0.0000E+00  0.8000E+02
     -4.230  0.0000E+00  0.8000E+02
     -4.225  0.0000E+00  0.8000E+02
     -4.220  0.0000E+00  0.8000E+02
     -4.215  0.0000E+00  0.8000E+02
     -4.210  0.0000E+00  0.8000E+02
     -4.205  0.0000E+00  0.8000E+02
     -4.200  0.0000E+00  0.8000E+02
     -4.195  0.0000E+00  0.8000E+02
     -4.190  0.0000E+00  0.8000E+02
     -4.185  0.0000E+00  0.8000E+02
     -4.180  0.0000E+00  0.8000E+02
     -4.175  0.0000E+00  0.8000E+02
     -4.170  0.0000E+00  0.8000E+02
     -4.165  0.0000E+00  0.8000E+02
     -4.160  0.0000E+00  0.8000E+02
     -4.155  0.0000E+00  0.8000E+02
     -4.150  0.0000E+00  0.8000E+02
     -4.145  0.0000E+00  0.8000E+02
     -4.140  0.0000E+00  0.8000E+02
     -4.135  0.0000E+00  0.8000E+02
     -4.130  0.0000E+00  0.8000E+02
     -4.125  0.0000E+00  0.8000E+02
     -4.120  0.0000E+00  0.8000E+02
     -4.115  0.0000E+00  0.8000E+02
     -4.110  0.0000E+00  0.8000E+02
     -4.105  0.0000E+00  0.8000E+02
     -4.100  0.0000E+00  0.8000E+02
     -4.095  0.0000E+00  0.8000E+02
     -4.090  0.0000E+00  0.8000E+02
     -4.085  0.0000E+00  0.8000E+02
     -4.080  0.0000E+00  0.8000E+02
     -4.075  0.0000E+00  0.8000E+02
     -4.070  0.0000E+00  0.8000E+02
     -4.065  0.0000E+00  0.8000E+02
     -4.060  0.0000E+00  0.8000E+02
     -4.055  0.0000E+00  0.8000E+02
     -4.050  0.0000E+00  0.8000E+02
     -4.045  0.0000E+00  0.8000E+02
     -4.040  0.0000E+00  0.8000E+02
     -4.035  0.0000E+00  0.8000E+02
     -4.030  0.0000E+00  0.8000E+02
     -4.025  0.0000E+00  0.8000E+02
     -4.020  0.0000E+00  0.8000E+02
     -4.015  0.0000E+00  0.8000E+02
     -4.010  0.0000E+00  0.8000E+02
     -4.005  0.0000E+00  0.8000E+02
     -4.000  0.0000E+00  0.8000E+02
     -3.995  0.0000E+00  0.8000E+02
     -3.990  0.0000E+00  0.8000E+02
     -3.985  0.0000E+00  0.8000E+02
     -3.980  0.0000E+00  0.8000E+02
     -3.975  0.0000E+00  0.8000E+02
     -3.970  0.0000E+00  0.8000E+02
     -3.965  0.0000E+00  0.8000E+02
     -3.960  0.0000E+00  0.8000E+02
     -3.955  0.0000E+00  0.8000E+02
     -3.950  0.0000E+00  0.8000E+02
     -3.945  0.0000E+00  0.8000E+02
     -3.940  0.0000E+00  0.8000E+02
     -3.935  0.0000E+00  0.8000E+02
     -3.930  0.0000E+00  0.8000E+02
     -3.925  0.0000E+00  0.8000E+02
     -3.920  0.0000E+00  0.8000E+02
     -3.915  0.0000E+00  0.8000E+02
     -3.910  0.0000E+00  0.8000E+02
     -3.905  0.0000E+00  0.8000E+02
     -3.900  0.0000E+00  0.8000E+02
     -3.895  0.0000E+00  0.8000E+02
     -3.890  0.0000E+00  0.8000E+02
     -3.885  0.0000E+00  0.8000E+02
     -3.880  0.0000E+00  0.8000E+02
     -3.875  0.0000E+00  0.8000E+02
     -3.870  0.0000E+00  0.8000E+02
     -3.865  0.0000E+00  0.8000E+02
     -3.860  0.0000E+00  0.8000E+02
     -3.855  0.0000E+00  0.8000E+02
     -3.850  0.0000E+00  0.8000E+02
     -3.845  0.0000E+00  0.8000E+02
     -3.840  0.0000E+00  0.8000E+02
     -3.835  0.0000E+00  0.8000E+02
     -3.830  0.0000E+00  0.8000E+02
     -3.825  0.0000E+00  0.8000E+02
     -3.820  0.0000E+00  0.8000E+02
     -3.815  0.0000E+00  0.8000E+02
     -3.810  0.0000E+00  0.8000E+02
     -3.805  0.0000E+00  0.8000E+02
     -3.800  0.0000E+00  0.8000E+02
     -3.795  0.0000E+00  0.8000E+02
     -3.790  0.0000E+00  0.8000E+02
     -3.785  0.0000E+00  0.8000E+02
     -3.780  0.0000E+00  0.8000E+02
     -3.775  0.0000E+00  0.8000E+02
     -3.770  0.0000E+00  0.8000E+02
     -3.765  0.0000E+00  0.8000E+02
     -3.760  0.0000E+00  0.8000E+02
     -3.755  0.0000E+00  0.8000E+02
     -3.750  0.0000E+00  0.8000E+02
     -3.745  0.0000E+00  0.8000E+02
     -3.740  0.0000E+00  0.8000E+02
     -3.735  0.0000E+00  0.8000E+02
     -3.730  0.0000E+00  0.8000E+02
     -3.725  0.0000E+00  0.8000E+02
     -3.720  0.0000E+00  0.8000E+02
     -3.715  0.0000E+00  0.8000E+02
     -3.710  0.0000E+00  0.8000E+02
     -3.705  0.0000E+00  0.8000E+02
     -3.700  0.0000E+00  0.8000E+02
     -3.695  0.0000E+00  0.8000E+02
     -3.690  0.0000E+00  0.8000E+02
     -3.685  0.0000E+00  0.8000E+02
     -3.680  0.0000E+00  0.8000E+02
     -3.675  0.0000E+00  0.8000E+02
     -3.670  0.0000E+00  0.8000E+02
     -3.665  0.0000E+00  0.8000E+02
     -3.660  0.0000E+00  0.8000E+02
     -3.655  0.0000E+00  0.8000E+02
     -3.650  0.0000E+00  0.8000E+02
     -3.645  0.0000E+00  0.8000E+02
     -3.640  0.0000E+00  0.8000E+02
     -3.635  0.0000E+00  0.8000E+02
     -3.630  0.0000E+00  0.8000E+02
     -3.625  0.0000E+00  0.8000E+02
     -3.620  0.0000E+00  0.8000E+02
     -3.615  0.0000E+00  0.8000E+02
     -3.610  0.0000E+00  0.8000E+02
     -3.605  0.0000E+00  0.8000E+02
     -3.600  0.0000E+00  0.8000E+02
     -3.595  0.0000E+00  0.8000E+02
     -3.590  0.0000E+00  0.8000E+02
     -3.585  0.0000E+00  0.8000E+02
     -3.580  0.0000E+00  0.8000E+02
     -3.575  0.0000E+00  0.8000E+02
     -3.570  0.0000E+00  0.8000E+02
     -3.565  0.0000E+00  0.8000E+02
     -3.560  0.0000E+00  0.8000E+02
     -3.555  0.0000E+00  0.8000E+02
     -3.550  0.0000E+00  0.8000E+02
     -3.545  0.0000E+00  0.8000E+02
     -3.540  0.0000E+00  0.8000E+02
     -3.535  0.0000E+00  0.8000E+02
     -3.530  0.0000E+00  0.8000E+02
     -3.525  0.0000E+00  0.8000E+02
     -3.520  0.0000E+00  0.8000E+02
     -3.515  0.0000E+00  0.8000E+02
     -3.510  0.0000E+00  0.8000E+02
     -3.505  0.0000E+00  0.8000E+02
     -3.500  0.0000E+00  0.8000E+02
     -3.495  0.0000E+00  0.8000E+02
     -3.490  0.0000E+00  0.8000E+02
     -3.485  0.0000E+00  0.8000E+02
     -3.480  0.0000E+00  0.8000E+02
     -3.475  0.0000E+00  0.8000E+02
     -3.470  0.0000E+00  0.8000E+02
     -3.465  0.0000E+00  0.8000E+02
     -3.460  0.0000E+00  0.8000E+02
     -3.455  0.0000E+00  0.8000E+02
     -3.450  0.0000E+00  0.8000E+02
     -3.445  0.0000E+00  0.8000E+02
     -3.440  0.0000E+00  0.8000E+02
     -3.435  0.0000E+00  0.8000E+02
     -3.430  0.0000E+00  0.8000E+02
     -3.425  0.0000E+00  0.8000E+02
     -3.420  0.0000E+00  0.8000E+02
     -3.415  0.0000E+00  0.8000E+02
     -3.410  0.0000E+00  0.8000E+02
     -3.405  0.0000E+00  0.8000E+02
     -3.400  0.0000E+00  0.8000E+02
     -3.395  0.0000E+00  0.8000E+02
     -3.390  0.0000E+00  0.8000E+02
     -3.385  0.0000E+00  0.8000E+02
     -3.380  0.0000E+00  0.8000E+02
     -3.375  0.0000E+00  0.8000E+02
     -3.370  0.0000E+00  0.8000E+02
     -3.365  0.0000E+00  0.8000E+02
     -3.360  0.0000E+00  0.8000E+02
     -3.355  0.0000E+00  0.8000E+02
     -3.350  0.0000E+00  0.8000E+02
     -3.345  0.0000E+00  0.8000E+02
     -3.340  0.0000E+00  0.8000E+02
     -3.335  0.0000E+00  0.8000E+02
     -3.330  0.0000E+00  0.8000E+02
     -3.325  0.0000E+00  0.8000E+02
     -3.320  0.0000E+00  0.8000E+02
     -3.315  0.0000E+00  0.8000E+02
     -3.310  0.0000E+00  0.8000E+02
     -3.305  0.0000E+00  0.8000E+02
     -3.300  0.0000E+00  0.8000E+02
     -3.295  0.0000E+00  0.8000E+02
     -3.290  0.0000E+00  0.8000E+02
     -3.285  0.0000E+00  0.8000E+02
     -3.280  0.0000E+00  0.8000E+02
     -3.275  0.0000E+00  0.8000E+02
     -3.270  0.0000E+00  0.8000E+02
     -3.265  0.0000E+00  0.8000E+02
     -3.260  0.0000E+00  0.8000E+02
     -3.255  0.0000E+00  0.8000E+02
     -3.250  0.0000E+00  0.8000E+02
     -3.245  0.0000E+00  0.8000E+02
     -3.240  0.0000E+00  0.8000E+02
     -3.235  0.0000E+00  0.8000E+02
     -3.230  0.0000E+00  0.8000E+02
     -3.225  0.0000E+00  0.8000E+02
     -3.220  0.0000E+00  0.8000E+02
     -3.215  0.0000E+00  0.8000E+02
     -3.210  0.0000E+00  0.8000E+02
     -3.205  0.0000E+00  0.8000E+02
     -3.200  0.0000E+00  0.8000E+02
     -3.195  0.0000E+00  0.8000E+02
     -3.190  0.0000E+00  0.8000E+02
     -3.185  0.0000E+00  0.8000E+02
     -3.180  0.0000E+00  0.8000E+02
     -3.175  0.0000E+00  0.8000E+02
     -3.170  0.0000E+00  0.8000E+02
     -3.165  0.0000E+00  0.8000E+02
     -3.160  0.0000E+00  0.8000E+02
     -3.155  0.0000E+00  0.8000E+02
     -3.150  0.0000E+00  0.8000E+02
     -3.145  0.0000E+00  0.8000E+02
     -3.140  0.0000E+00  0.8000E+02
     -3.135  0.0000E+00  0.8000E+02
     -3.130  0.0000E+00  0.8000E+02
     -3.125  0.0000E+00  0.8000E+02
     -3.120  0.0000E+00  0.8000E+02
     -3.115  0.0000E+00  0.8000E+02
     -3.110  0.0000E+00  0.8000E+02
     -3.105  0.0000E+00  0.8000E+02
     -3.100  0.0000E+00  0.8000E+02
     -3.095  0.0000E+00  0.8000E+02
     -3.090  0.0000E+00  0.8000E+02
     -3.085  0.0000E+00  0.8000E+02
     -3.080  0.0000E+00  0.8000E+02
     -3.075  0.0000E+00  0.8000E+02
     -3.070  0.0000E+00  0.8000E+02
     -3.065  0.0000E+00  0.8000E+02
     -3.060  0.0000E+00  0.8000E+02
     -3.055  0.0000E+00  0.8000E+02
     -3.050  0.0000E+00  0.8000E+02
     -3.045  0.0000E+00  0.8000E+02
     -3.040  0.0000E+00  0.8000E+02
     -3.035  0.0000E+00  0.8000E+02
     -3.030  0.0000E+00  0.8000E+02
     -3.025  0.0000E+00  0.8000E+02
     -3.020  0.0000E+00  0.8000E+02
     -3.015  0.0000E+00  0.8000E+02
     -3.010  0.0000E+00  0.8000E+02
     -3.005  0.0000E+00  0.8000E+02
     -3.000  0.0000E+00  0.8000E+02
     -2.995  0.0000E+00  0.8000E+02
     -2.990  0.0000E+00  0.8000E+02
     -2.985  0.0000E+00  0.8000E+02
     -2.980  0.0000E+00  0.8000E+02
     -2.975  0.0000E+00  0.8000E+02
     -2.970  0.0000E+00  0.8000E+02
     -2.965  0.0000E+00  0.8000E+02
     -2.960  0.0000E+00  0.8000E+02
     -2.955  0.0000E+00  0.8000E+02
     -2.950  0.0000E+00  0.8000E+02
     -2.945  0.0000E+00  0.8000E+02
     -2.940  0.0000E+00  0.8000E+02
     -2.935  0.0000E+00  0.8000E+02
     -2.930  0.0000E+00  0.8000E+02
     -2.925  0.0000E+00  0.8000E+02
     -2.920  0.0000E+00  0.8000E+02
     -2.915  0.0000E+00  0.8000E+02
     -2.910  0.0000E+00  0.8000E+02
     -2.905  0.0000E+00  0.8000E+02
     -2.900  0.0000E+00  0.8000E+02
     -2.895  0.0000E+00  0.8000E+02
     -2.890  0.0000E+00  0.8000E+02
     -2.885  0.0000E+00  0.8000E+02
     -2.880  0.0000E+00  0.8000E+02
     -2.875  0.0000E+00  0.8000E+02
     -2.870  0.0000E+00  0.8000E+02
     -2.865  0.0000E+00  0.8000E+02
     -2.860  0.0000E+00  0.8000E+02
     -2.855  0.0000E+00  0.8000E+02
     -2.850  0.0000E+00  0.8000E+02
     -2.845  0.0000E+00  0.8000E+02
     -2.840  0.0000E+00  0.8000E+02
     -2.835  0.0000E+00  0.8000E+02
     -2.830  0.0000E+00  0.8000E+02
     -2.825  0.0000E+00  0.8000E+02
     -2.820  0.0000E+00  0.8000E+02
     -2.815  0.0000E+00  0.8000E+02
     -2.810  0.0000E+00  0.8000E+02
     -2.805  0.0000E+00  0.8000E+02
     -2.800  0.0000E+00  0.8000E+02
     -2.795  0.0000E+00  0.8000E+02
     -2.790  0.0000E+00  0.8000E+02
     -2.785  0.0000E+00  0.8000E+02
     -2.780  0.0000E+00  0.8000E+02
     -2.775  0.0000E+00  0.8000E+02
     -2.770  0.0000E+00  0.8000E+02
     -2.765  0.0000E+00  0.8000E+02
     -2.760  0.0000E+00  0.8000E+02
     -2.755  0.0000E+00  0.8000E+02
     -2.750  0.0000E+00  0.8000E+02
     -2.745  0.0000E+00  0.8000E+02
     -2.740  0.0000E+00  0.8000E+02
     -2.735  0.0000E+00  0.8000E+02
     -2.730  0.0000E+00  0.8000E+02
     -2.725  0.0000E+00  0.8000E+02
     -2.720  0.0000E+00  0.8000E+02
     -2.715  0.0000E+00  0.8000E+02
     -2.710  0.0000E+00  0.8000E+02
     -2.705  0.0000E+00  0.8000E+02
     -2.700  0.0000E+00  0.8000E+02
     -2.695  0.0000E+00  0.8000E+02
     -2.690  0.0000E+00  0.8000E+02
     -2.685  0.0000E+00  0.8000E+02
     -2.680  0.0000E+00  0.8000E+02
     -2.675  0.0000E+00  0.8000E+02
     -2.670  0.0000E+00  0.8000E+02
     -2.665  0.0000E+00  0.8000E+02
     -2.660  0.0000E+00  0.8000E+02
     -2.655  0.0000E+00  0.8000E+02
     -2.650  0.0000E+00  0.8000E+02
     -2.645  0.0000E+00  0.8000E+02
     -2.640  0.0000E+00  0.8000E+02
     -2.635  0.0000E+00  0.8000E+02
     -2.630  0.0000E+00  0.8000E+02
     -2.625  0.0000E+00  0.8000E+02
     -2.620  0.0000E+00  0.8000E+02
     -2.615  0.0000E+00  0.8000E+02
     -2.610  0.0000E+00  0.8000E+02
     -2.605  0.0000E+00  0.8000E+02
     -2.600  0.0000E+00  0.8000E+02
     -2.595  0.0000E+00  0.8000E+02
     -2.590  0.0000E+00  0.8000E+02
     -2.585  0.0000E+00  0.8000E+02
     -2.580  0.0000E+00  0.8000E+02
     -2.575  0.0000E+00  0.8000E+02
     -2.570  0.0000E+00  0.8000E+02
     -2.565  0.0000E+00  0.8000E+02
     -2.560  0.0000E+00  0.8000E+02
     -2.555  0.0000E+00  0.8000E+02
     -2.550  0.0000E+00  0.8000E+02
     -2.545  0.0000E+00  0.8000E+02
     -2.540  0.0000E+00  0.8000E+02
     -2.535  0.0000E+00  0.8000E+02
     -2.530  0.0000E+00  0.8000E+02
     -2.525  0.0000E+00  0.8000E+02
     -2.520  0.0000E+00  0.8000E+02
     -2.515  0.0000E+00  0.8000E+02
     -2.510  0.0000E+00  0.8000E+02
     -2.505  0.0000E+00  0.8000E+02
     -2.500  0.0000E+00  0.8000E+02
     -2.495  0.0000E+00  0.8000E+02
     -2.490  0.0000E+00  0.8000E+02
     -2.485  0.0000E+00  0.8000E+02
     -2.480  0.0000E+00  0.8000E+02
     -2.475  0.0000E+00  0.8000E+02
     -2.470  0.0000E+00  0.8000E+02
     -2.465  0.0000E+00  0.8000E+02
     -2.460  0.0000E+00  0.8000E+02
     -2.455  0.0000E+00  0.8000E+02
     -2.450  0.0000E+00  0.8000E+02
     -2.445  0.0000E+00  0.8000E+02
     -2.440  0.0000E+00  0.8000E+02
     -2.435  0.0000E+00  0.8000E+02
     -2.430  0.0000E+00  0.8000E+02
     -2.425  0.0000E+00  0.8000E+02
     -2.420  0.0000E+00  0.8000E+02
     -2.415  0.0000E+00  0.8000E+02
     -2.410  0.0000E+00  0.8000E+02
     -2.405  0.0000E+00  0.8000E+02
     -2.400  0.0000E+00  0.8000E+02
     -2.395  0.0000E+00  0.8000E+02
     -2.390  0.0000E+00  0.8000E+02
     -2.385  0.0000E+00  0.8000E+02
     -2.380  0.0000E+00  0.8000E+02
     -2.375  0.0000E+00  0.8000E+02
     -2.370  0.0000E+00  0.8000E+02
     -2.365  0.0000E+00  0.8000E+02
     -2.360  0.0000E+00  0.8000E+02
     -2.355  0.0000E+00  0.8000E+02
     -2.350  0.0000E+00  0.8000E+02
     -2.345  0.0000E+00  0.8000E+02
     -2.340  0.0000E+00  0.8000E+02
     -2.335  0.0000E+00  0.8000E+02
     -2.330  0.0000E+00  0.8000E+02
     -2.325  0.0000E+00  0.8000E+02
     -2.320  0.0000E+00  0.8000E+02
     -2.315  0.0000E+00  0.8000E+02
     -2.310  0.0000E+00  0.8000E+02
     -2.305  0.0000E+00  0.8000E+02
     -2.300  0.0000E+00  0.8000E+02
     -2.295  0.0000E+00  0.8000E+02
     -2.290  0.0000E+00  0.8000E+02
     -2.285  0.0000E+00  0.8000E+02
     -2.280  0.0000E+00  0.8000E+02
     -2.275  0.0000E+00  0.8000E+02
     -2.270  0.0000E+00  0.8000E+02
     -2.265  0.0000E+00  0.8000E+02
     -2.260  0.0000E+00  0.8000E+02
     -2.255  0.0000E+00  0.8000E+02
     -2.250  0.0000E+00  0.8000E+02
     -2.245  0.0000E+00  0.8000E+02
     -2.240  0.0000E+00  0.8000E+02
     -2.235  0.0000E+00  0.8000E+02
     -2.230  0.0000E+00  0.8000E+02
     -2.225  0.0000E+00  0.8000E+02
     -2.220  0.0000E+00  0.8000E+02
     -2.215  0.0000E+00  0.8000E+02
     -2.210  0.0000E+00  0.8000E+02
     -2.205  0.0000E+00  0.8000E+02
     -2.200  0.0000E+00  0.8000E+02
     -2.195  0.0000E+00  0.8000E+02
     -2.190  0.0000E+00  0.8000E+02
     -2.185  0.0000E+00  0.8000E+02
     -2.180  0.0000E+00  0.8000E+02
     -2.175  0.0000E+00  0.8000E+02
     -2.170  0.0000E+00  0.8000E+02
     -2.165  0.0000E+00  0.8000E+02
     -2.160  0.0000E+00  0.8000E+02
     -2.155  0.0000E+00  0.8000E+02
     -2.150  0.0000E+00  0.8000E+02
     -2.145  0.0000E+00  0.8000E+02
     -2.140  0.0000E+00  0.8000E+02
     -2.135  0.0000E+00  0.8000E+02
     -2.130  0.0000E+00  0.8000E+02
     -2.125  0.0000E+00  0.8000E+02
     -2.120  0.0000E+00  0.8000E+02
     -2.115  0.0000E+00  0.8000E+02
     -2.110  0.0000E+00  0.8000E+02
     -2.105  0.0000E+00  0.8000E+02
     -2.100  0.0000E+00  0.8000E+02
     -2.095  0.0000E+00  0.8000E+02
     -2.090  0.0000E+00  0.8000E+02
     -2.085  0.0000E+00  0.8000E+02
     -2.080  0.0000E+00  0.8000E+02
     -2.075  0.0000E+00  0.8000E+02
     -2.070  0.0000E+00  0.8000E+02
     -2.065  0.0000E+00  0.8000E+02
     -2.060  0.0000E+00  0.8000E+02
     -2.055  0.0000E+00  0.8000E+02
     -2.050  0.0000E+00  0.8000E+02
     -2.045  0.0000E+00  0.8000E+02
     -2.040  0.0000E+00  0.8000E+02
     -2.035  0.9039E-03  0.8000E+02
     -2.030  0.4811E-02  0.8000E+02
     -2.025  0.1181E-01  0.8000E+02
     -2.020  0.2189E-01  0.8000E+02
     -2.015  0.3507E-01  0.8000E+02
     -2.010  0.5133E-01  0.8000E+02
     -2.005  0.7068E-01  0.8000E+02
     -2.000  0.9312E-01  0.8000E+02
     -1.995  0.1186E+00  0.8000E+02
     -1.990  0.1473E+00  0.8000E+02
     -1.985  0.1790E+00  0.8000E+02
     -1.980  0.2138E+00  0.8000E+02
     -1.975  0.2517E+00  0.8001E+02
     -1.970  0.2929E+00  0.8001E+02
     -1.965  0.3375E+00  0.8001E+02
     -1.960  0.3855E+00  0.8001E+02
     -1.955  0.4367E+00  0.8001E+02
     -1.950  0.4871E+00  0.8001E+02
     -1.945  0.5359E+00  0.8002E+02
     -1.940  0.5830E+00  0.8002E+02
     -1.935  0.6283E+00  0.8002E+02
     -1.930  0.6720E+00  0.8003E+02
     -1.925  0.7139E+00  0.8003E+02
     -1.920  0.7534E+00  0.8003E+02
     -1.915  0.7911E+00  0.8004E+02
     -1.910  0.8288E+00  0.8004E+02
     -1.905  0.8670E+00  0.8005E+02
     -1.900  0.9056E+00  0.8005E+02
     -1.895  0.9446E+00  0.8005E+02
     -1.890  0.9840E+00  0.8006E+02
     -1.885  0.1024E+01  0.8006E+02
     -1.880  0.1064E+01  0.8007E+02
     -1.875  0.1105E+01  0.8007E+02
     -1.870  0.1146E+01  0.8008E+02
     -1.865  0.1187E+01  0.8009E+02
     -1.860  0.1229E+01  0.8009E+02
     -1.855  0.1272E+01  0.8010E+02
     -1.850  0.1314E+01  0.8011E+02
     -1.845  0.1357E+01  0.8011E+02
     -1.840  0.1400E+01  0.8012E+02
     -1.835  0.1445E+01  0.8013E+02
     -1.830  0.1492E+01  0.8013E+02
     -1.825  0.1540E+01  0.8014E+02
     -1.820  0.1591E+01  0.8015E+02
     -1.815  0.1650E+01  0.8016E+02
     -1.810  0.1719E+01  0.8017E+02
     -1.805  0.1797E+01  0.8017E+02
     -1.800  0.1885E+01  0.8018E+02
     -1.795  0.1981E+01  0.8019E+02
     -1.790  0.2084E+01  0.8020E+02
     -1.785  0.2202E+01  0.8021E+02
     -1.780  0.2355E+01  0.8022E+02
     -1.775  0.2788E+01  0.8024E+02
     -1.770  0.3067E+01  0.8025E+02
     -1.765  0.3343E+01  0.8027E+02
     -1.760  0.3615E+01  0.8029E+02
     -1.755  0.4042E+01  0.8031E+02
     -1.750  0.4308E+01  0.8033E+02
     -1.745  0.4553E+01  0.8035E+02
     -1.740  0.4778E+01  0.8037E+02
     -1.735  0.4981E+01  0.8040E+02
     -1.730  0.5162E+01  0.8042E+02
     -1.725  0.5339E+01  0.8045E+02
     -1.720  0.5514E+01  0.8047E+02
     -1.715  0.5731E+01  0.8050E+02
     -1.710  0.5987E+01  0.8053E+02
     -1.705  0.6247E+01  0.8056E+02
     -1.700  0.6508E+01  0.8059E+02
     -1.695  0.6726E+01  0.8063E+02
     -1.690  0.6920E+01  0.8066E+02
     -1.685  0.7130E+01  0.8070E+02
     -1.680  0.7354E+01  0.8073E+02
     -1.675  0.7569E+01  0.8077E+02
     -1.670  0.7757E+01  0.8081E+02
     -1.665  0.7956E+01  0.8085E+02
     -1.660  0.8173E+01  0.8089E+02
     -1.655  0.8403E+01  0.8093E+02
     -1.650  0.8564E+01  0.8097E+02
     -1.645  0.8826E+01  0.8102E+02
     -1.640  0.9279E+01  0.8106E+02
     -1.635  0.9784E+01  0.8111E+02
     -1.630  0.1030E+02  0.8116E+02
     -1.625  0.1084E+02  0.8121E+02
     -1.620  0.1132E+02  0.8127E+02
     -1.615  0.1141E+02  0.8132E+02
     -1.610  0.1146E+02  0.8138E+02
     -1.605  0.1153E+02  0.8144E+02
     -1.600  0.1159E+02  0.8150E+02
     -1.595  0.1160E+02  0.8155E+02
     -1.590  0.1158E+02  0.8161E+02
     -1.585  0.1153E+02  0.8167E+02
     -1.580  0.1146E+02  0.8173E+02
     -1.575  0.1134E+02  0.8178E+02
     -1.570  0.1122E+02  0.8184E+02
     -1.565  0.1109E+02  0.8190E+02
     -1.560  0.1096E+02  0.8195E+02
     -1.555  0.1082E+02  0.8201E+02
     -1.550  0.1067E+02  0.8206E+02
     -1.545  0.1051E+02  0.8211E+02
     -1.540  0.1031E+02  0.8217E+02
     -1.535  0.1006E+02  0.8222E+02
     -1.530  0.9757E+01  0.8227E+02
     -1.525  0.9419E+01  0.8231E+02
     -1.520  0.9100E+01  0.8236E+02
     -1.515  0.8854E+01  0.8240E+02
     -1.510  0.8611E+01  0.8245E+02
     -1.505  0.8409E+01  0.8249E+02
     -1.500  0.8235E+01  0.8253E+02
     -1.495  0.8081E+01  0.8257E+02
     -1.490  0.7921E+01  0.8261E+02
     -1.485  0.7769E+01  0.8265E+02
     -1.480  0.7641E+01  0.8269E+02
     -1.475  0.7635E+01  0.8273E+02
     -1.470  0.8078E+01  0.8277E+02
     -1.465  0.8634E+01  0.8281E+02
     -1.460  0.8146E+01  0.8285E+02
     -1.455  0.8554E+01  0.8290E+02
     -1.450  0.8656E+01  0.8295E+02
     -1.445  0.8731E+01  0.8299E+02
     -1.440  0.8708E+01  0.8303E+02
     -1.435  0.8581E+01  0.8308E+02
     -1.430  0.8396E+01  0.8312E+02
     -1.425  0.8176E+01  0.8316E+02
     -1.420  0.7910E+01  0.8320E+02
     -1.415  0.7624E+01  0.8324E+02
     -1.410  0.7318E+01  0.8328E+02
     -1.405  0.7018E+01  0.8331E+02
     -1.400  0.6727E+01  0.8335E+02
     -1.395  0.6480E+01  0.8338E+02
     -1.390  0.6298E+01  0.8341E+02
     -1.385  0.6174E+01  0.8344E+02
     -1.380  0.6177E+01  0.8348E+02
     -1.375  0.6350E+01  0.8351E+02
     -1.370  0.6701E+01  0.8354E+02
     -1.365  0.7540E+01  0.8357E+02
     -1.360  0.8731E+01  0.8362E+02
     -1.355  0.7272E+01  0.8365E+02
     -1.350  0.6878E+01  0.8369E+02
     -1.345  0.5789E+01  0.8372E+02
     -1.340  0.5664E+01  0.8375E+02
     -1.335  0.5482E+01  0.8378E+02
     -1.330  0.5403E+01  0.8380E+02
     -1.325  0.5266E+01  0.8383E+02
     -1.320  0.5090E+01  0.8386E+02
     -1.315  0.4980E+01  0.8388E+02
     -1.310  0.4964E+01  0.8391E+02
     -1.305  0.5011E+01  0.8393E+02
     -1.300  0.5100E+01  0.8396E+02
     -1.295  0.5231E+01  0.8398E+02
     -1.290  0.5392E+01  0.8401E+02
     -1.285  0.5565E+01  0.8404E+02
     -1.280  0.5826E+01  0.8407E+02
     -1.275  0.5974E+01  0.8410E+02
     -1.270  0.5978E+01  0.8413E+02
     -1.265  0.5854E+01  0.8415E+02
     -1.260  0.5880E+01  0.8418E+02
     -1.255  0.5942E+01  0.8421E+02
     -1.250  0.6043E+01  0.8424E+02
     -1.245  0.6231E+01  0.8427E+02
     -1.240  0.6392E+01  0.8431E+02
     -1.235  0.5671E+01  0.8434E+02
     -1.230  0.5857E+01  0.8436E+02
     -1.225  0.6579E+01  0.8439E+02
     -1.220  0.7399E+01  0.8443E+02
     -1.215  0.1404E+02  0.8448E+02
     -1.210  0.1647E+02  0.8456E+02
     -1.205  0.1924E+02  0.8465E+02
     -1.200  0.2270E+02  0.8475E+02
     -1.195  0.1923E+02  0.8487E+02
     -1.190  0.1732E+02  0.8496E+02
     -1.185  0.1764E+02  0.8504E+02
     -1.180  0.1799E+02  0.8514E+02
     -1.175  0.1622E+02  0.8522E+02
     -1.170  0.1492E+02  0.8530E+02
     -1.165  0.1374E+02  0.8537E+02
     -1.160  0.1295E+02  0.8544E+02
     -1.155  0.1261E+02  0.8550E+02
     -1.150  0.1200E+02  0.8556E+02
     -1.145  0.1164E+02  0.8562E+02
     -1.140  0.1124E+02  0.8568E+02
     -1.135  0.1076E+02  0.8573E+02
     -1.130  0.1031E+02  0.8578E+02
     -1.125  0.1023E+02  0.8584E+02
     -1.120  0.1030E+02  0.8589E+02
     -1.115  0.1058E+02  0.8594E+02
     -1.110  0.9936E+01  0.8599E+02
     -1.105  0.9501E+01  0.8604E+02
     -1.100  0.8887E+01  0.8609E+02
     -1.095  0.1097E+02  0.8613E+02
     -1.090  0.7397E+01  0.8618E+02
     -1.085  0.5960E+01  0.8621E+02
     -1.080  0.6077E+01  0.8624E+02
     -1.075  0.5937E+01  0.8627E+02
     -1.070  0.5844E+01  0.8630E+02
     -1.065  0.5418E+01  0.8633E+02
     -1.060  0.5344E+01  0.8636E+02
     -1.055  0.5287E+01  0.8638E+02
     -1.050  0.5248E+01  0.8641E+02
     -1.045  0.5229E+01  0.8644E+02
     -1.040  0.5236E+01  0.8646E+02
     -1.035  0.5178E+01  0.8649E+02
     -1.030  0.4953E+01  0.8651E+02
     -1.025  0.5206E+01  0.8654E+02
     -1.020  0.5469E+01  0.8656E+02
     -1.015  0.5746E+01  0.8659E+02
     -1.010  0.6029E+01  0.8662E+02
     -1.005  0.6434E+01  0.8665E+02
     -1.000  0.6788E+01  0.8669E+02
     -0.995  0.7148E+01  0.8672E+02
     -0.990  0.7538E+01  0.8676E+02
     -0.985  0.8485E+01  0.8680E+02
     -0.980  0.9285E+01  0.8684E+02
     -0.975  0.1075E+02  0.8689E+02
     -0.970  0.1176E+02  0.8695E+02
     -0.965  0.1279E+02  0.8701E+02
     -0.960  0.1383E+02  0.8708E+02
     -0.955  0.1490E+02  0.8715E+02
     -0.950  0.1578E+02  0.8723E+02
     -0.945  0.1736E+02  0.8731E+02
     -0.940  0.1753E+02  0.8739E+02
     -0.935  0.1726E+02  0.8748E+02
     -0.930  0.1712E+02  0.8757E+02
     -0.925  0.1710E+02  0.8765E+02
     -0.920  0.1705E+02  0.8774E+02
     -0.915  0.1710E+02  0.8782E+02
     -0.910  0.1715E+02  0.8791E+02
     -0.905  0.1722E+02  0.8799E+02
     -0.900  0.1725E+02  0.8808E+02
     -0.895  0.1724E+02  0.8817E+02
     -0.890  0.1718E+02  0.8825E+02
     -0.885  0.1710E+02  0.8834E+02
     -0.880  0.1702E+02  0.8842E+02
     -0.875  0.1699E+02  0.8851E+02