       N       E                     dE             d eps       ncg     rms          rms(c)
DAV:   1     0.242968939662E+04    0.24297E+04   -0.89940E+04 18616   0.175E+03
DAV:   2     0.178934178242E+03   -0.22508E+04   -0.20547E+04 18432   0.507E+02
DAV:   3    -0.165387071184E+03   -0.34432E+03   -0.32281E+03 19560   0.203E+02
DAV:   4    -0.189252870170E+03   -0.23866E+02   -0.23569E+02 22824   0.483E+01
DAV:   5    -0.190258653849E+03   -0.10058E+01   -0.99597E+00 28336   0.760E+00    0.615E+01
DAV:   6    -0.228265657785E+03   -0.38007E+02   -0.30224E+02 24000   0.945E+01    0.126E+02
DAV:   7    -0.145493506004E+03    0.82772E+02   -0.12657E+02 20704   0.754E+01    0.219E+01
DAV:   8    -0.202535521979E+03   -0.57042E+02   -0.26672E+02 22680   0.571E+01    0.979E+01
DAV:   9    -0.152547619310E+03    0.49988E+02   -0.21736E+01 21656   0.325E+01    0.444E+01
DAV:  10    -0.146627064983E+03    0.59206E+01   -0.24259E+01 22216   0.248E+01    0.253E+01
DAV:  11    -0.145208022666E+03    0.14190E+01   -0.79415E+00 21376   0.834E+00    0.604E+00
DAV:  12    -0.145166303104E+03    0.41720E-01   -0.44496E-01 21848   0.291E+00    0.607E+00
DAV:  13    -0.145145699251E+03    0.20604E-01   -0.67077E-02 20952   0.836E-01    0.497E+00
DAV:  14    -0.145107121022E+03    0.38578E-01   -0.12549E-01 25080   0.752E-01    0.136E+00
DAV:  15    -0.145104163312E+03    0.29577E-02   -0.89007E-03 22656   0.459E-01    0.146E+00
DAV:  16    -0.145101692008E+03    0.24713E-02   -0.98726E-03 22888   0.230E-01    0.588E-01
DAV:  17    -0.145101966409E+03   -0.27440E-03   -0.12151E-03 22056   0.116E-01    0.691E-01
DAV:  18    -0.145101353008E+03    0.61340E-03   -0.30285E-03 21328   0.109E-01    0.220E-01
DAV:  19    -0.145101336653E+03    0.16355E-04   -0.10631E-04 21032   0.339E-02    0.171E-01
DAV:  20    -0.145101327640E+03    0.90126E-05   -0.62333E-05 22520   0.192E-02    0.833E-02
DAV:  21    -0.145101321041E+03    0.65986E-05   -0.83010E-06 20360   0.781E-03    0.862E-02
DAV:  22    -0.145101323079E+03   -0.20380E-05   -0.10554E-05 22352   0.713E-03    0.461E-02
DAV:  23    -0.145101325214E+03   -0.21343E-05   -0.44994E-06 21520   0.532E-03    0.183E-02
DAV:  24    -0.145101324703E+03    0.51072E-06   -0.26074E-07 19576   0.260E-03    0.145E-02
DAV:  25    -0.145101326375E+03   -0.16723E-05   -0.66202E-07 18632   0.189E-03    0.345E-03
DAV:  26    -0.145101326364E+03    0.11252E-07   -0.30825E-08 14464   0.700E-04    0.236E-03
DAV:  27    -0.145101326497E+03   -0.13300E-06   -0.44909E-09 10560   0.287E-04    0.158E-03
DAV:  28    -0.145101326767E+03   -0.27021E-06   -0.15985E-08 10496   0.228E-04    0.123E-04
DAV:  29    -0.145101326786E+03   -0.18590E-07   -0.52141E-10 10464   0.112E-04    0.139E-04
DAV:  30    -0.145101326754E+03    0.32198E-07   -0.25937E-10 10384   0.644E-05
   1 F= -.14510133E+03 E0= -.14510133E+03  d E =0.000000E+00
