 vasp.5.4.4.18Apr17-6-g9f103f2a35 (build May  5 2021 09:15:07) complex           
 executed on             LinuxIFC date 2021.06.24  10:42:43
 running on    8 total cores
 distrk:  each k-point on    2 cores,    4 groups
 distr:  one band on NCORES_PER_BAND=   2 cores,    1 groups


--------------------------------------------------------------------------------------------------------


 INCAR:
 POTCAR:    PAW_PBE Ca_sv 06Sep2000               
 POTCAR:    PAW_PBE Fe_pv 02Aug2007               
 POTCAR:    PAW_PBE O 08Apr2002                   

 ----------------------------------------------------------------------------- 
|                                                                             |
|           W    W    AA    RRRRR   N    N  II  N    N   GGGG   !!!           |
|           W    W   A  A   R    R  NN   N  II  NN   N  G    G  !!!           |
|           W    W  A    A  R    R  N N  N  II  N N  N  G       !!!           |
|           W WW W  AAAAAA  RRRRR   N  N N  II  N  N N  G  GGG   !            |
|           WW  WW  A    A  R   R   N   NN  II  N   NN  G    G                |
|           W    W  A    A  R    R  N    N  II  N    N   GGGG   !!!           |
|                                                                             |
|      You have enabled k-point parallelism (KPAR>1).                         |
|      This developmental code was originally  written by Paul Kent at ORNL,  |
|      and carefully double checked in Vienna.                                |
|      GW as well as linear response parallelism added by Martijn Marsman     |
|      and Georg Kresse.                                                      |
|      Carefully verify results versus KPAR=1.                                |
|      Report problems to Paul Kent and Vienna.                               |
|                                                                             |
 ----------------------------------------------------------------------------- 

 POTCAR:    PAW_PBE Ca_sv 06Sep2000               
   VRHFIN =Ca: 3s3p4s                                                           
   LEXCH  = PE                                                                  
   EATOM  =  1006.0909 eV,   73.9456 Ry                                         
                                                                                
   TITEL  = PAW_PBE Ca_sv 06Sep2000                                             
   LULTRA =        F    use ultrasoft PP ?                                      
   IUNSCR =        1    unscreen: 0-lin 1-nonlin 2-no                           
   RPACOR =    2.000    partial core radius                                     
   POMASS =   40.078; ZVAL   =   10.000    mass and valenz                      
   RCORE  =    2.300    outmost cutoff radius                                   
   RWIGS  =    2.500; RWIGS  =    1.323    wigner-seitz radius (au A)           
   ENMAX  =  266.622; ENMIN  =  199.967 eV                                      
   RCLOC  =    1.808    cutoff for local pot                                    
   LCOR   =        T    correct aug charges                                     
   LPAW   =        T    paw PP                                                  
   EAUG   =  420.852                                                            
   RMAX   =    2.359    core radius for proj-oper                               
   RAUG   =    1.300    factor for augmentation sphere                          
   RDEP   =    2.392    radius for radial grids                                 
   RDEPT  =    1.987    core radius for aug-charge                              
                                                                                
   Atomic configuration                                                         
    7 entries                                                                   
     n  l   j            E        occ.                                          
     1  0  0.50     -3949.1705   2.0000                                         
     2  0  0.50      -414.3434   2.0000                                         
     2  1  1.50      -334.7047   6.0000                                         
     3  0  0.50       -47.0896   2.0000                                         
     4  0  0.50        -3.7663   2.0000                                         
     3  1  1.50       -28.0061   6.0000                                         
     3  2  1.50        -4.0817   0.0000                                         
   Description                                                                  
     l       E           TYP  RCUT    TYP  RCUT                                 
     0    -47.0896403     23  2.300                                             
     0     -3.7663320     23  2.300                                             
     1    -28.0060855     23  2.300                                             
     1      6.8029130     23  2.300                                             
     2     -4.0817478     23  2.300                                             
     2      0.4464412     23  2.300                                             
  local pseudopotential read in
  partial core-charges read in
  partial kinetic energy density read in
  atomic valenz-charges read in
  non local Contribution for L=           0  read in
    real space projection operators read in
  non local Contribution for L=           0  read in
    real space projection operators read in
  non local Contribution for L=           1  read in
    real space projection operators read in
  non local Contribution for L=           1  read in
    real space projection operators read in
  non local Contribution for L=           2  read in
    real space projection operators read in
  non local Contribution for L=           2  read in
    real space projection operators read in
    PAW grid and wavefunctions read in

   number of l-projection  operators is LMAX  =           6
   number of lm-projection operators is LMMAX =          18

 POTCAR:    PAW_PBE Fe_pv 02Aug2007               
   VRHFIN =Fe:  3pd7s1                                                          
   LEXCH  = PE                                                                  
   EATOM  =  2457.4239 eV,  180.6156 Ry                                         
                                                                                
   TITEL  = PAW_PBE Fe_pv 02Aug2007                                             
   LULTRA =        F    use ultrasoft PP ?                                      
   IUNSCR =        1    unscreen: 0-lin 1-nonlin 2-no                           
   RPACOR =    1.750    partial core radius                                     
   POMASS =   55.847; ZVAL   =   14.000    mass and valenz                      
   RCORE  =    2.200    outmost cutoff radius                                   
   RWIGS  =    2.200; RWIGS  =    1.164    wigner-seitz radius (au A)           
   ENMAX  =  293.238; ENMIN  =  219.928 eV                                      
   ICORE  =        3    local potential                                         
   LCOR   =        T    correct aug charges                                     
   LPAW   =        T    paw PP                                                  
   EAUG   =  578.342                                                            
   DEXC   =    0.000                                                            
   RMAX   =    2.249    core radius for proj-oper                               
   RAUG   =    1.300    factor for augmentation sphere                          
   RDEP   =    2.296    radius for radial grids                                 
   RDEPT  =    1.766    core radius for aug-charge                              
                                                                                
   Atomic configuration                                                         
    8 entries                                                                   
     n  l   j            E        occ.                                          
     1  0  0.50     -6993.8440   2.0000                                         
     2  0  0.50      -814.6047   2.0000                                         
     2  1  1.50      -693.3689   6.0000                                         
     3  0  0.50       -89.4732   2.0000                                         
     3  1  1.50       -55.6373   6.0000                                         
     3  2  2.50        -3.8151   7.0000                                         
     4  0  0.50        -4.2551   1.0000                                         
     4  3  2.50        -1.3606   0.0000                                         
   Description                                                                  
     l       E           TYP  RCUT    TYP  RCUT                                 
     1    -55.6372668     23  2.000                                             
     1     -5.4423304     23  2.000                                             
     2     -3.8151096     23  2.200                                             
     2     -5.1756922     23  2.200                                             
     0     -4.2550951     23  2.200                                             
     0     27.2116520     23  2.200                                             
     3     -1.3605826     23  2.200                                             
  local pseudopotential read in
  partial core-charges read in
  partial kinetic energy density read in
  atomic valenz-charges read in
  non local Contribution for L=           1  read in
    real space projection operators read in
  non local Contribution for L=           1  read in
    real space projection operators read in
  non local Contribution for L=           2  read in
    real space projection operators read in
  non local Contribution for L=           2  read in
    real space projection operators read in
  non local Contribution for L=           0  read in
    real space projection operators read in
  non local Contribution for L=           0  read in
    real space projection operators read in
    PAW grid and wavefunctions read in

   number of l-projection  operators is LMAX  =           6
   number of lm-projection operators is LMMAX =          18

 POTCAR:    PAW_PBE O 08Apr2002                   
   VRHFIN =O: s2p4                                                              
   LEXCH  = PE                                                                  
   EATOM  =   432.3788 eV,   31.7789 Ry                                         
                                                                                
   TITEL  = PAW_PBE O 08Apr2002                                                 
   LULTRA =        F    use ultrasoft PP ?                                      
   IUNSCR =        1    unscreen: 0-lin 1-nonlin 2-no                           
   RPACOR =    1.200    partial core radius                                     
   POMASS =   16.000; ZVAL   =    6.000    mass and valenz                      
   RCORE  =    1.520    outmost cutoff radius                                   
   RWIGS  =    1.550; RWIGS  =    0.820    wigner-seitz radius (au A)           
   ENMAX  =  400.000; ENMIN  =  300.000 eV                                      
   ICORE  =        2    local potential                                         
   LCOR   =        T    correct aug charges                                     
   LPAW   =        T    paw PP                                                  
   EAUG   =  605.392                                                            
   DEXC   =    0.000                                                            
   RMAX   =    1.553    core radius for proj-oper                               
   RAUG   =    1.300    factor for augmentation sphere                          
   RDEP   =    1.550    radius for radial grids                                 
   RDEPT  =    1.329    core radius for aug-charge                              
                                                                                
   Atomic configuration                                                         
    4 entries                                                                   
     n  l   j            E        occ.                                          
     1  0  0.50      -514.6923   2.0000                                         
     2  0  0.50       -23.9615   2.0000                                         
     2  1  0.50        -9.0305   4.0000                                         
     3  2  1.50        -9.5241   0.0000                                         
   Description                                                                  
     l       E           TYP  RCUT    TYP  RCUT                                 
     0    -23.9615318     23  1.200                                             
     0     -9.5240782     23  1.200                                             
     1     -9.0304911     23  1.520                                             
     1      8.1634956     23  1.520                                             
     2     -9.5240782      7  1.500                                             
  local pseudopotential read in
  partial core-charges read in
  partial kinetic energy density read in
  kinetic energy density of atom read in
  atomic valenz-charges read in
  non local Contribution for L=           0  read in
    real space projection operators read in
  non local Contribution for L=           0  read in
    real space projection operators read in
  non local Contribution for L=           1  read in
    real space projection operators read in
  non local Contribution for L=           1  read in
    real space projection operators read in
    PAW grid and wavefunctions read in

   number of l-projection  operators is LMAX  =           4
   number of lm-projection operators is LMMAX =           8


 ----------------------------------------------------------------------------- 
|                                                                             |
|  ADVICE TO THIS USER RUNNING 'VASP/VAMP'   (HEAR YOUR MASTER'S VOICE ...):  |
|                                                                             |
|      You have a (more or less) 'large supercell' and for larger cells       |
|      it might be more efficient to use real space projection opertators     |
|      So try LREAL= Auto  in the INCAR   file.                               |
|      Mind:          For very  accurate calculation you might also keep the  |
|      reciprocal projection scheme          (i.e. LREAL=.FALSE.)             |
|                                                                             |
 ----------------------------------------------------------------------------- 


 ----------------------------------------------------------------------------- 
|                                                                             |
|  ADVICE TO THIS USER RUNNING 'VASP/VAMP'   (HEAR YOUR MASTER'S VOICE ...):  |
|                                                                             |
|      You enforced a specific xc-type in the INCAR file,                     |
|      a different type was found on the POTCAR file                          |
|          I HOPE YOU KNOW, WHAT YOU ARE  DOING                               |
|                                                                             |
 ----------------------------------------------------------------------------- 

  PAW_PBE Ca_sv 06Sep2000               :
 energy of atom  1       EATOM=-1006.0909
 kinetic energy error for atom=    0.0012 (will be added to EATOM!!)
  PAW_PBE Fe_pv 02Aug2007               :
 energy of atom  2       EATOM=-2457.4239
 kinetic energy error for atom=    0.0055 (will be added to EATOM!!)
  PAW_PBE O 08Apr2002                   :
 energy of atom  3       EATOM= -432.3788
 kinetic energy error for atom=    0.0168 (will be added to EATOM!!)


 POSCAR: Ca Fe  O                                
  positions in cartesian coordinates
  No initial velocities read in
 exchange correlation table for  LEXCH =       14
   RHO(1)=    0.500       N(1)  =     2000
   RHO(2)=  100.500       N(2)  =     4000



--------------------------------------------------------------------------------------------------------


 ion  position               nearest neighbor table
   1  0.043  0.993  0.250-  10 2.33  17 2.33  14 2.34  18 2.42   9 2.55  13 2.56
   2  0.543  0.507  0.250-   9 2.33  18 2.33  13 2.34  17 2.42  10 2.55  14 2.56
   3  0.957  0.007  0.750-  12 2.33  19 2.33  16 2.34  20 2.42  11 2.55  15 2.56
   4  0.457  0.493  0.750-  11 2.33  20 2.33  15 2.34  19 2.42  12 2.55  16 2.56
   5  0.000  0.500  0.000-  17 1.95  19 1.95   9 1.98  11 1.98  14 1.99  16 1.99
   6  0.500  0.000  0.500-  18 1.95  20 1.95  10 1.98  12 1.98  13 1.99  15 1.99
   7  0.000  0.500  0.500-  17 1.84  19 1.84  13 1.87  15 1.87  10 1.88  12 1.88
   8  0.500  0.000  0.000-  18 1.84  20 1.84  14 1.87  16 1.87   9 1.88  11 1.88
   9  0.299  0.716  0.038-   8 1.88   5 1.98   2 2.33   1 2.55
  10  0.799  0.784  0.462-   7 1.88   6 1.98   1 2.33   2 2.55
  11  0.701  0.284  0.962-   8 1.88   5 1.98   4 2.33   3 2.55
  12  0.201  0.216  0.538-   7 1.88   6 1.98   3 2.33   4 2.55
  13  0.283  0.700  0.462-   7 1.87   6 1.99   2 2.34   1 2.56
  14  0.783  0.800  0.038-   8 1.87   5 1.99   1 2.34   2 2.56
  15  0.717  0.300  0.538-   7 1.87   6 1.99   4 2.34   3 2.56
  16  0.217  0.200  0.962-   8 1.87   5 1.99   3 2.34   4 2.56
  17  0.990  0.428  0.258-   7 1.84   5 1.95   1 2.33   2 2.42
  18  0.490  0.072  0.242-   8 1.84   6 1.95   2 2.33   1 2.42
  19  0.010  0.572  0.742-   7 1.84   5 1.95   3 2.33   4 2.42
  20  0.510  0.928  0.758-   8 1.84   6 1.95   4 2.33   3 2.42

  LATTYP: Found a simple orthorhombic cell.
 ALAT       =     5.3212100000
 B/A-ratio  =     1.0016725519
 C/A-ratio  =     1.3936698608
  
  Lattice vectors:
  
 A1 = (   0.0000000000,  -5.3212100000,   0.0000000000)
 A2 = (  -5.3301100000,   0.0000000000,   0.0000000000)
 A3 = (   0.0000000000,   0.0000000000,  -7.4160100000)


Analysis of symmetry for initial positions (statically):
=====================================================================
 Subroutine PRICEL returns:
 Original cell was already a primitive cell.
 

 Routine SETGRP: Setting up the symmetry group for a 
 simple orthorhombic supercell.


 Subroutine GETGRP returns: Found  4 space group operations
 (whereof  2 operations were pure point group operations)
 out of a pool of  8 trial point group operations.


The static configuration has the point symmetry S_2 .
 The point group associated with its full space group is C_2h.


Analysis of symmetry for dynamics (positions and initial velocities):
=====================================================================
 Subroutine PRICEL returns:
 Original cell was already a primitive cell.
 

 Routine SETGRP: Setting up the symmetry group for a 
 simple orthorhombic supercell.


 Subroutine GETGRP returns: Found  4 space group operations
 (whereof  2 operations were pure point group operations)
 out of a pool of  8 trial point group operations.


The dynamic configuration has the point symmetry S_2 .
 The point group associated with its full space group is C_2h.


 Subroutine INISYM returns: Found  4 space group operations
 (whereof  2 operations are pure point group operations),
 and found     1 'primitive' translations



 KPOINTS: KPOINTS created by Atomic Simulation Env

Automatic generation of k-mesh.
Space group operators:
 irot       det(A)        alpha          n_x          n_y          n_z        tau_x        tau_y        tau_z
    1     1.000000     0.000000     1.000000     0.000000     0.000000     0.000000     0.000000     0.000000
    2    -1.000000     0.000000     1.000000     0.000000     0.000000     0.000000     0.000000     0.000000
    3     1.000000   180.000000     1.000000     0.000000     0.000000    -0.500000    -0.500000    -0.500000
    4    -1.000000   180.000000     1.000000     0.000000     0.000000    -0.500000    -0.500000    -0.500000
 
 Subroutine IBZKPT returns following result:
 ===========================================
 
 Found     72 irreducible k-points:
 
 Following reciprocal coordinates:
            Coordinates               Weight
  0.000000  0.000000  0.000000      1.000000
  0.142857  0.000000  0.000000      2.000000
  0.285714  0.000000  0.000000      2.000000
  0.428571  0.000000  0.000000      2.000000
  0.000000  0.142857  0.000000      2.000000
  0.142857  0.142857  0.000000      4.000000
  0.285714  0.142857  0.000000      4.000000
  0.428571  0.142857  0.000000      4.000000
  0.000000  0.285714  0.000000      2.000000
  0.142857  0.285714  0.000000      4.000000
  0.285714  0.285714  0.000000      4.000000
  0.428571  0.285714  0.000000      4.000000
  0.000000  0.428571  0.000000      2.000000
  0.142857  0.428571  0.000000      4.000000
  0.285714  0.428571  0.000000      4.000000
  0.428571  0.428571  0.000000      4.000000
  0.000000  0.000000  0.200000      2.000000
  0.142857  0.000000  0.200000      4.000000
  0.285714  0.000000  0.200000      4.000000
  0.428571  0.000000  0.200000      4.000000
  0.000000  0.142857  0.200000      2.000000
  0.142857  0.142857  0.200000      4.000000
  0.285714  0.142857  0.200000      4.000000
  0.428571  0.142857  0.200000      4.000000
  0.000000  0.285714  0.200000      2.000000
  0.142857  0.285714  0.200000      4.000000
  0.285714  0.285714  0.200000      4.000000
  0.428571  0.285714  0.200000      4.000000
  0.000000  0.428571  0.200000      2.000000
  0.142857  0.428571  0.200000      4.000000
  0.285714  0.428571  0.200000      4.000000
  0.428571  0.428571  0.200000      4.000000
  0.000000 -0.428571  0.200000      2.000000
  0.142857 -0.428571  0.200000      4.000000
  0.285714 -0.428571  0.200000      4.000000
  0.428571 -0.428571  0.200000      4.000000
  0.000000 -0.285714  0.200000      2.000000
  0.142857 -0.285714  0.200000      4.000000
  0.285714 -0.285714  0.200000      4.000000
  0.428571 -0.285714  0.200000      4.000000
  0.000000 -0.142857  0.200000      2.000000
  0.142857 -0.142857  0.200000      4.000000
  0.285714 -0.142857  0.200000      4.000000
  0.428571 -0.142857  0.200000      4.000000
  0.000000  0.000000  0.400000      2.000000
  0.142857  0.000000  0.400000      4.000000
  0.285714  0.000000  0.400000      4.000000
  0.428571  0.000000  0.400000      4.000000
  0.000000  0.142857  0.400000      2.000000
  0.142857  0.142857  0.400000      4.000000
  0.285714  0.142857  0.400000      4.000000
  0.428571  0.142857  0.400000      4.000000
  0.000000  0.285714  0.400000      2.000000
  0.142857  0.285714  0.400000      4.000000
  0.285714  0.285714  0.400000      4.000000
  0.428571  0.285714  0.400000      4.000000
  0.000000  0.428571  0.400000      2.000000
  0.142857  0.428571  0.400000      4.000000
  0.285714  0.428571  0.400000      4.000000
  0.428571  0.428571  0.400000      4.000000
  0.000000 -0.428571  0.400000      2.000000
  0.142857 -0.428571  0.400000      4.000000
  0.285714 -0.428571  0.400000      4.000000
  0.428571 -0.428571  0.400000      4.000000
  0.000000 -0.285714  0.400000      2.000000
  0.142857 -0.285714  0.400000      4.000000
  0.285714 -0.285714  0.400000      4.000000
  0.428571 -0.285714  0.400000      4.000000
  0.000000 -0.142857  0.400000      2.000000
  0.142857 -0.142857  0.400000      4.000000
  0.285714 -0.142857  0.400000      4.000000
  0.428571 -0.142857  0.400000      4.000000
 
 Following cartesian coordinates:
            Coordinates               Weight
  0.000000  0.000000  0.000000      1.000000
  0.026802  0.000000  0.000000      2.000000
  0.053604  0.000000  0.000000      2.000000
  0.080406  0.000000  0.000000      2.000000
  0.000000  0.026847  0.000000      2.000000
  0.026802  0.026847  0.000000      4.000000
  0.053604  0.026847  0.000000      4.000000
  0.080406  0.026847  0.000000      4.000000
  0.000000  0.053693  0.000000      2.000000
  0.026802  0.053693  0.000000      4.000000
  0.053604  0.053693  0.000000      4.000000
  0.080406  0.053693  0.000000      4.000000
  0.000000  0.080540  0.000000      2.000000
  0.026802  0.080540  0.000000      4.000000
  0.053604  0.080540  0.000000      4.000000
  0.080406  0.080540  0.000000      4.000000
  0.000000  0.000000  0.026969      2.000000
  0.026802  0.000000  0.026969      4.000000
  0.053604  0.000000  0.026969      4.000000
  0.080406  0.000000  0.026969      4.000000
  0.000000  0.026847  0.026969      2.000000
  0.026802  0.026847  0.026969      4.000000
  0.053604  0.026847  0.026969      4.000000
  0.080406  0.026847  0.026969      4.000000
  0.000000  0.053693  0.026969      2.000000
  0.026802  0.053693  0.026969      4.000000
  0.053604  0.053693  0.026969      4.000000
  0.080406  0.053693  0.026969      4.000000
  0.000000  0.080540  0.026969      2.000000
  0.026802  0.080540  0.026969      4.000000
  0.053604  0.080540  0.026969      4.000000
  0.080406  0.080540  0.026969      4.000000
  0.000000 -0.080540  0.026969      2.000000
  0.026802 -0.080540  0.026969      4.000000
  0.053604 -0.080540  0.026969      4.000000
  0.080406 -0.080540  0.026969      4.000000
  0.000000 -0.053693  0.026969      2.000000
  0.026802 -0.053693  0.026969      4.000000
  0.053604 -0.053693  0.026969      4.000000
  0.080406 -0.053693  0.026969      4.000000
  0.000000 -0.026847  0.026969      2.000000
  0.026802 -0.026847  0.026969      4.000000
  0.053604 -0.026847  0.026969      4.000000
  0.080406 -0.026847  0.026969      4.000000
  0.000000  0.000000  0.053937      2.000000
  0.026802  0.000000  0.053937      4.000000
  0.053604  0.000000  0.053937      4.000000
  0.080406  0.000000  0.053937      4.000000
  0.000000  0.026847  0.053937      2.000000
  0.026802  0.026847  0.053937      4.000000
  0.053604  0.026847  0.053937      4.000000
  0.080406  0.026847  0.053937      4.000000
  0.000000  0.053693  0.053937      2.000000
  0.026802  0.053693  0.053937      4.000000
  0.053604  0.053693  0.053937      4.000000
  0.080406  0.053693  0.053937      4.000000
  0.000000  0.080540  0.053937      2.000000
  0.026802  0.080540  0.053937      4.000000
  0.053604  0.080540  0.053937      4.000000
  0.080406  0.080540  0.053937      4.000000
  0.000000 -0.080540  0.053937      2.000000
  0.026802 -0.080540  0.053937      4.000000
  0.053604 -0.080540  0.053937      4.000000
  0.080406 -0.080540  0.053937      4.000000
  0.000000 -0.053693  0.053937      2.000000
  0.026802 -0.053693  0.053937      4.000000
  0.053604 -0.053693  0.053937      4.000000
  0.080406 -0.053693  0.053937      4.000000
  0.000000 -0.026847  0.053937      2.000000
  0.026802 -0.026847  0.053937      4.000000
  0.053604 -0.026847  0.053937      4.000000
  0.080406 -0.026847  0.053937      4.000000
 
 TETIRR: Found    723 inequivalent tetrahedra from     1470


--------------------------------------------------------------------------------------------------------




 Dimension of arrays:
   k-points           NKPTS =     72   k-points in BZ     NKDIM =     72   number of bands    NBANDS=    128
   number of dos      NEDOS =   3001   number of ions     NIONS =     20
   non local maximal  LDIM  =      6   non local SUM 2l+1 LMDIM =     18
   total plane-waves  NPLWV =  49152
   max r-space proj   IRMAX =      1   max aug-charges    IRDMAX=  11348
   dimension x,y,z NGX =    32 NGY =   32 NGZ =   48
   dimension x,y,z NGXF=    64 NGYF=   64 NGZF=   96
   support grid    NGXF=    64 NGYF=   64 NGZF=   96
   ions per type =               4   4  12
   NGX,Y,Z   is equivalent  to a cutoff of   9.98, 10.00, 10.76 a.u.
   NGXF,Y,Z  is equivalent  to a cutoff of  19.96, 19.99, 21.52 a.u.

 SYSTEM =  CaFeO3 R1+0.20                          
 POSCAR =  Ca Fe  O                                

 Startparameter for this run:
   NWRITE =      2    write-flag & timer
   PREC   = normal    normal or accurate (medium, high low for compatibility)
   ISTART =      0    job   : 0-new  1-cont  2-samecut
   ICHARG =      2    charge: 1-file 2-atom 10-const
   ISPIN  =      1    spin polarized calculation?
   LNONCOLLINEAR =      F non collinear calculations
   LSORBIT =      F    spin-orbit coupling
   INIWAV =      1    electr: 0-lowe 1-rand  2-diag
   LASPH  =      F    aspherical Exc in radial PAW
   METAGGA=      F    non-selfconsistent MetaGGA calc.

 Electronic Relaxation 1
   ENCUT  =  600.0 eV  44.10 Ry    6.64 a.u.  10.65 10.63 14.81*2*pi/ulx,y,z
   ENINI  =  600.0     initial cutoff
   ENAUG  =  605.4 eV  augmentation charge cutoff
   NELM   =     30;   NELMIN=  2; NELMDL= -5     # of ELM steps 
   EDIFF  = 0.1E-07   stopping-criterion for ELM
   LREAL  =      F    real-space projection
   NLSPLINE    = F    spline interpolate recip. space projectors
   LCOMPAT=      F    compatible to vasp.4.4
   GGA_COMPAT  = T    GGA compatible to vasp.4.4-vasp.4.6
   LMAXPAW     = -100 max onsite density
   LMAXMIX     =    4 max onsite mixed and CHGCAR
   VOSKOWN=      0    Vosko Wilk Nusair interpolation
   ROPT   =    0.00000   0.00000   0.00000
 Ionic relaxation
   EDIFFG = 0.1E-06   stopping-criterion for IOM
   NSW    =      0    number of steps for IOM
   NBLOCK =      1;   KBLOCK =      1    inner block; outer block 
   IBRION =     -1    ionic relax: 0-MD 1-quasi-New 2-CG
   NFREE  =      0    steps in history (QN), initial steepest desc. (CG)
   ISIF   =      2    stress and relaxation
   IWAVPR =     10    prediction:  0-non 1-charg 2-wave 3-comb
   ISYM   =      2    0-nonsym 1-usesym 2-fastsym
   LCORR  =      T    Harris-Foulkes like correction to forces

   POTIM  = 0.5000    time-step for ionic-motion
   TEIN   =    0.0    initial temperature
   TEBEG  =    0.0;   TEEND  =   0.0 temperature during run
   SMASS  =  -3.00    Nose mass-parameter (am)
   estimated Nose-frequenzy (Omega)   =  0.10E-29 period in steps =****** mass=  -0.649E-27a.u.
   SCALEE = 1.0000    scale energy and forces
   NPACO  =    256;   APACO  = 16.0  distance and # of slots for P.C.
   PSTRESS=    0.0 pullay stress

  Mass of Ions in am
   POMASS =  40.08 55.85 16.00
  Ionic Valenz
   ZVAL   =  10.00 14.00  6.00
  Atomic Wigner-Seitz radii
   RWIGS  =  -1.00 -1.00 -1.00
  virtual crystal weights 
   VCA    =   1.00  1.00  1.00
   NELECT =     168.0000    total number of electrons
   NUPDOWN=      -1.0000    fix difference up-down

 DOS related values:
   EMIN   =  -5.00;   EMAX   = 10.00  energy-range for DOS
   EFERMI =   0.00
   ISMEAR =    -5;   SIGMA  =   0.01  broadening in eV -4-tet -1-fermi 0-gaus

 Electronic relaxation 2 (details)
   IALGO  =     38    algorithm
   LDIAG  =      T    sub-space diagonalisation (order eigenvalues)
   LSUBROT=      F    optimize rotation matrix (better conditioning)
   TURBO    =      0    0=normal 1=particle mesh
   IRESTART =      0    0=no restart 2=restart with 2 vectors
   NREBOOT  =      0    no. of reboots
   NMIN     =      0    reboot dimension
   EREF     =   0.00    reference energy to select bands
   IMIX   =      4    mixing-type and parameters
     AMIX     =   0.40;   BMIX     =  1.00
     AMIX_MAG =   1.60;   BMIX_MAG =  1.00
     AMIN     =   0.10
     WC   =   100.;   INIMIX=   1;  MIXPRE=   1;  MAXMIX= -45

 Intra band minimization:
   WEIMIN = 0.0000     energy-eigenvalue tresh-hold
   EBREAK =  0.20E-10  absolut break condition
   DEPER  =   0.30     relativ break condition  

   TIME   =   0.40     timestep for ELM

  volume/ion in A,a.u.               =      10.52        70.97
  Fermi-wavevector in a.u.,A,eV,Ry     =   1.518934  2.870369 31.390833  2.307161
  Thomas-Fermi vector in A             =   2.627988

 Write flags
   LWAVE        =      T    write WAVECAR
   LDOWNSAMPLE  =      F    k-point downsampling of WAVECAR
   LCHARG       =      T    write CHGCAR
   LVTOT        =      F    write LOCPOT, total local potential
   LVHAR        =      F    write LOCPOT, Hartree potential only
   LELF         =      F    write electronic localiz. function (ELF)
   LORBIT       =      0    0 simple, 1 ext, 2 COOP (PROOUT), +10 PAW based schemes


 Dipole corrections
   LMONO  =      F    monopole corrections only (constant potential shift)
   LDIPOL =      F    correct potential (dipole corrections)
   IDIPOL =      0    1-x, 2-y, 3-z, 4-all directions 
   EPSILON=  1.0000000 bulk dielectric constant

 Exchange correlation treatment:
   GGA     =    PS    GGA type
   LEXCH   =    14    internal setting for exchange type
   VOSKOWN=      0    Vosko Wilk Nusair interpolation
   LHFCALC =     F    Hartree Fock is set to
   LHFONE  =     F    Hartree Fock one center treatment
   AEXX    =    0.0000 exact exchange contribution

 Linear response parameters
   LEPSILON=     F    determine dielectric tensor
   LRPA    =     F    only Hartree local field effects (RPA)
   LNABLA  =     F    use nabla operator in PAW spheres
   LVEL    =     F    velocity operator in full k-point grid
   LINTERFAST=   F  fast interpolation
   KINTER  =     0    interpolate to denser k-point grid
   CSHIFT  =0.1000    complex shift for real part using Kramers Kronig
   OMEGAMAX=  -1.0    maximum frequency
   DEG_THRESHOLD= 0.2000000E-02 threshold for treating states as degnerate
   RTIME   =   -0.100 relaxation time in fs
  (WPLASMAI=    0.000 imaginary part of plasma frequency in eV, 0.658/RTIME)
   DFIELD  = 0.0000000 0.0000000 0.0000000 field for delta impulse in time

 Orbital magnetization related:
   ORBITALMAG=     F  switch on orbital magnetization
   LCHIMAG   =     F  perturbation theory with respect to B field
   DQ        =  0.001000  dq finite difference perturbation B field
   LLRAUG    =     F  two centre corrections for induced B field



--------------------------------------------------------------------------------------------------------


 Static calculation
 charge density and potential will be updated during run
 non-spin polarized calculation
 Variant of blocked Davidson
 Davidson routine will perform the subspace rotation
 perform sub-space diagonalisation
    after iterative eigenvector-optimisation
 modified Broyden-mixing scheme, WC =      100.0
 initial mixing is a Kerker type mixing with AMIX =  0.4000 and BMIX =      1.0000
 Hartree-type preconditioning will be used
 using additional bands           44
 reciprocal scheme for non local part
 use partial core corrections
 calculate Harris-corrections to forces   (improved forces if not selfconsistent)
 use gradient corrections 
 use of overlap-Matrix (Vanderbilt PP)
 Fermi weights with tetrahedron method with Bloechl corrections


--------------------------------------------------------------------------------------------------------


  energy-cutoff  :      600.00
  volume of cell :      210.34
      direct lattice vectors                 reciprocal lattice vectors
     5.330110000  0.000000000  0.000000000     0.187613389  0.000000000  0.000000000
     0.000000000  5.321210000  0.000000000     0.000000000  0.187927182  0.000000000
     0.000000000  0.000000000  7.416010000     0.000000000  0.000000000  0.134843400

  length of vectors
     5.330110000  5.321210000  7.416010000     0.187613389  0.187927182  0.134843400



 k-points in units of 2pi/SCALE and weight: KPOINTS created by Atomic Simulation Env
   0.00000000  0.00000000  0.00000000       0.004
   0.02680191  0.00000000  0.00000000       0.008
   0.05360383  0.00000000  0.00000000       0.008
   0.08040574  0.00000000  0.00000000       0.008
   0.00000000  0.02684674  0.00000000       0.008
   0.02680191  0.02684674  0.00000000       0.016
   0.05360383  0.02684674  0.00000000       0.016
   0.08040574  0.02684674  0.00000000       0.016
   0.00000000  0.05369348  0.00000000       0.008
   0.02680191  0.05369348  0.00000000       0.016
   0.05360383  0.05369348  0.00000000       0.016
   0.08040574  0.05369348  0.00000000       0.016
   0.00000000  0.08054022  0.00000000       0.008
   0.02680191  0.08054022  0.00000000       0.016
   0.05360383  0.08054022  0.00000000       0.016
   0.08040574  0.08054022  0.00000000       0.016
   0.00000000  0.00000000  0.02696868       0.008
   0.02680191  0.00000000  0.02696868       0.016
   0.05360383  0.00000000  0.02696868       0.016
   0.08040574  0.00000000  0.02696868       0.016
   0.00000000  0.02684674  0.02696868       0.008
   0.02680191  0.02684674  0.02696868       0.016
   0.05360383  0.02684674  0.02696868       0.016
   0.08040574  0.02684674  0.02696868       0.016
   0.00000000  0.05369348  0.02696868       0.008
   0.02680191  0.05369348  0.02696868       0.016
   0.05360383  0.05369348  0.02696868       0.016
   0.08040574  0.05369348  0.02696868       0.016
   0.00000000  0.08054022  0.02696868       0.008
   0.02680191  0.08054022  0.02696868       0.016
   0.05360383  0.08054022  0.02696868       0.016
   0.08040574  0.08054022  0.02696868       0.016
   0.00000000 -0.08054022  0.02696868       0.008
   0.02680191 -0.08054022  0.02696868       0.016
   0.05360383 -0.08054022  0.02696868       0.016
   0.08040574 -0.08054022  0.02696868       0.016
   0.00000000 -0.05369348  0.02696868       0.008
   0.02680191 -0.05369348  0.02696868       0.016
   0.05360383 -0.05369348  0.02696868       0.016
   0.08040574 -0.05369348  0.02696868       0.016
   0.00000000 -0.02684674  0.02696868       0.008
   0.02680191 -0.02684674  0.02696868       0.016
   0.05360383 -0.02684674  0.02696868       0.016
   0.08040574 -0.02684674  0.02696868       0.016
   0.00000000  0.00000000  0.05393736       0.008
   0.02680191  0.00000000  0.05393736       0.016
   0.05360383  0.00000000  0.05393736       0.016
   0.08040574  0.00000000  0.05393736       0.016
   0.00000000  0.02684674  0.05393736       0.008
   0.02680191  0.02684674  0.05393736       0.016
   0.05360383  0.02684674  0.05393736       0.016
   0.08040574  0.02684674  0.05393736       0.016
   0.00000000  0.05369348  0.05393736       0.008
   0.02680191  0.05369348  0.05393736       0.016
   0.05360383  0.05369348  0.05393736       0.016
   0.08040574  0.05369348  0.05393736       0.016
   0.00000000  0.08054022  0.05393736       0.008
   0.02680191  0.08054022  0.05393736       0.016
   0.05360383  0.08054022  0.05393736       0.016
   0.08040574  0.08054022  0.05393736       0.016
   0.00000000 -0.08054022  0.05393736       0.008
   0.02680191 -0.08054022  0.05393736       0.016
   0.05360383 -0.08054022  0.05393736       0.016
   0.08040574 -0.08054022  0.05393736       0.016
   0.00000000 -0.05369348  0.05393736       0.008
   0.02680191 -0.05369348  0.05393736       0.016
   0.05360383 -0.05369348  0.05393736       0.016
   0.08040574 -0.05369348  0.05393736       0.016
   0.00000000 -0.02684674  0.05393736       0.008
   0.02680191 -0.02684674  0.05393736       0.016
   0.05360383 -0.02684674  0.05393736       0.016
   0.08040574 -0.02684674  0.05393736       0.016

 k-points in reciprocal lattice and weights: KPOINTS created by Atomic Simulation Env
   0.00000000  0.00000000  0.00000000       0.004
   0.14285714  0.00000000  0.00000000       0.008
   0.28571429  0.00000000  0.00000000       0.008
   0.42857143  0.00000000  0.00000000       0.008
   0.00000000  0.14285714  0.00000000       0.008
   0.14285714  0.14285714  0.00000000       0.016
   0.28571429  0.14285714  0.00000000       0.016
   0.42857143  0.14285714  0.00000000       0.016
   0.00000000  0.28571429  0.00000000       0.008
   0.14285714  0.28571429  0.00000000       0.016
   0.28571429  0.28571429  0.00000000       0.016
   0.42857143  0.28571429  0.00000000       0.016
   0.00000000  0.42857143  0.00000000       0.008
   0.14285714  0.42857143  0.00000000       0.016
   0.28571429  0.42857143  0.00000000       0.016
   0.42857143  0.42857143  0.00000000       0.016
   0.00000000  0.00000000  0.20000000       0.008
   0.14285714  0.00000000  0.20000000       0.016
   0.28571429  0.00000000  0.20000000       0.016
   0.42857143  0.00000000  0.20000000       0.016
   0.00000000  0.14285714  0.20000000       0.008
   0.14285714  0.14285714  0.20000000       0.016
   0.28571429  0.14285714  0.20000000       0.016
   0.42857143  0.14285714  0.20000000       0.016
   0.00000000  0.28571429  0.20000000       0.008
   0.14285714  0.28571429  0.20000000       0.016
   0.28571429  0.28571429  0.20000000       0.016
   0.42857143  0.28571429  0.20000000       0.016
   0.00000000  0.42857143  0.20000000       0.008
   0.14285714  0.42857143  0.20000000       0.016
   0.28571429  0.42857143  0.20000000       0.016
   0.42857143  0.42857143  0.20000000       0.016
   0.00000000 -0.42857143  0.20000000       0.008
   0.14285714 -0.42857143  0.20000000       0.016
   0.28571429 -0.42857143  0.20000000       0.016
   0.42857143 -0.42857143  0.20000000       0.016
   0.00000000 -0.28571429  0.20000000       0.008
   0.14285714 -0.28571429  0.20000000       0.016
   0.28571429 -0.28571429  0.20000000       0.016
   0.42857143 -0.28571429  0.20000000       0.016
   0.00000000 -0.14285714  0.20000000       0.008
   0.14285714 -0.14285714  0.20000000       0.016
   0.28571429 -0.14285714  0.20000000       0.016
   0.42857143 -0.14285714  0.20000000       0.016
   0.00000000  0.00000000  0.40000000       0.008
   0.14285714  0.00000000  0.40000000       0.016
   0.28571429  0.00000000  0.40000000       0.016
   0.42857143  0.00000000  0.40000000       0.016
   0.00000000  0.14285714  0.40000000       0.008
   0.14285714  0.14285714  0.40000000       0.016
   0.28571429  0.14285714  0.40000000       0.016
   0.42857143  0.14285714  0.40000000       0.016
   0.00000000  0.28571429  0.40000000       0.008
   0.14285714  0.28571429  0.40000000       0.016
   0.28571429  0.28571429  0.40000000       0.016
   0.42857143  0.28571429  0.40000000       0.016
   0.00000000  0.42857143  0.40000000       0.008
   0.14285714  0.42857143  0.40000000       0.016
   0.28571429  0.42857143  0.40000000       0.016
   0.42857143  0.42857143  0.40000000       0.016
   0.00000000 -0.42857143  0.40000000       0.008
   0.14285714 -0.42857143  0.40000000       0.016
   0.28571429 -0.42857143  0.40000000       0.016
   0.42857143 -0.42857143  0.40000000       0.016
   0.00000000 -0.28571429  0.40000000       0.008
   0.14285714 -0.28571429  0.40000000       0.016
   0.28571429 -0.28571429  0.40000000       0.016
   0.42857143 -0.28571429  0.40000000       0.016
   0.00000000 -0.14285714  0.40000000       0.008
   0.14285714 -0.14285714  0.40000000       0.016
   0.28571429 -0.14285714  0.40000000       0.016
   0.42857143 -0.14285714  0.40000000       0.016

 position of ions in fractional coordinates (direct lattice) 
   0.04337000  0.99316000  0.25000000
   0.54337000  0.50684000  0.25000000
   0.95663000  0.00684000  0.75000000
   0.45663000  0.49316000  0.75000000
   0.00000000  0.50000000  0.00000000
   0.50000000  0.00000000  0.50000000
   0.00000000  0.50000000  0.50000000
   0.50000000  0.00000000  0.00000000
   0.29853000  0.71591000  0.03796000
   0.79853000  0.78409000  0.46204000
   0.70147000  0.28409000  0.96204000
   0.20147000  0.21591000  0.53796000
   0.28309000  0.70047000  0.46204000
   0.78309000  0.79953000  0.03796000
   0.71691000  0.29953000  0.53796000
   0.21691000  0.20047000  0.96204000
   0.99021000  0.42753000  0.25772000
   0.49021000  0.07247000  0.24228000
   0.00979000  0.57247000  0.74228000
   0.50979000  0.92753000  0.75772000

 position of ions in cartesian coordinates  (Angst):
   0.23116687  5.28481292  1.85400250
   2.89622187  2.69700208  1.85400250
   5.09894313  0.03639708  5.56200750
   2.43388813  2.62420792  5.56200750
   0.00000000  2.66060500  0.00000000
   2.66505500  0.00000000  3.70800500
   0.00000000  2.66060500  3.70800500
   2.66505500  0.00000000  0.00000000
   1.59119774  3.80950745  0.28151174
   4.25625274  4.17230755  3.42649326
   3.73891226  1.51170255  7.13449826
   1.07385726  1.14890245  3.98951674
   1.50890084  3.72734797  3.42649326
   4.17395584  4.25446703  0.28151174
   3.82120916  1.59386203  3.98951674
   1.15615416  1.06674297  7.13449826
   5.27792822  2.27497691  1.91125410
   2.61287322  0.38562809  1.79675090
   0.05218178  3.04623309  5.50475590
   2.71723678  4.93558191  5.61925910



--------------------------------------------------------------------------------------------------------


 k-point  1 :   0.0000 0.0000 0.0000  plane waves:    7009
 k-point  2 :   0.1429 0.0000 0.0000  plane waves:    7031
 k-point  3 :   0.2857 0.0000 0.0000  plane waves:    7031
 k-point  4 :   0.4286 0.0000 0.0000  plane waves:    7046
 k-point  5 :   0.0000 0.1429 0.0000  plane waves:    7025
 k-point  6 :   0.1429 0.1429 0.0000  plane waves:    7017
 k-point  7 :   0.2857 0.1429 0.0000  plane waves:    7027
 k-point  8 :   0.4286 0.1429 0.0000  plane waves:    7010
 k-point  9 :   0.0000 0.2857 0.0000  plane waves:    7035
 k-point 10 :   0.1429 0.2857 0.0000  plane waves:    7037
 k-point 11 :   0.2857 0.2857 0.0000  plane waves:    7022
 k-point 12 :   0.4286 0.2857 0.0000  plane waves:    6999
 k-point 13 :   0.0000 0.4286 0.0000  plane waves:    7042
 k-point 14 :   0.1429 0.4286 0.0000  plane waves:    7008
 k-point 15 :   0.2857 0.4286 0.0000  plane waves:    6999
 k-point 16 :   0.4286 0.4286 0.0000  plane waves:    7003
 k-point 17 :   0.0000 0.0000 0.2000  plane waves:    7006
 k-point 18 :   0.1429 0.0000 0.2000  plane waves:    7009
 k-point 19 :   0.2857 0.0000 0.2000  plane waves:    7032
 k-point 20 :   0.4286 0.0000 0.2000  plane waves:    7014
 k-point 21 :   0.0000 0.1429 0.2000  plane waves:    7008
 k-point 22 :   0.1429 0.1429 0.2000  plane waves:    7028
 k-point 23 :   0.2857 0.1429 0.2000  plane waves:    7023
 k-point 24 :   0.4286 0.1429 0.2000  plane waves:    7019
 k-point 25 :   0.0000 0.2857 0.2000  plane waves:    7032
 k-point 26 :   0.1429 0.2857 0.2000  plane waves:    7022
 k-point 27 :   0.2857 0.2857 0.2000  plane waves:    7009
 k-point 28 :   0.4286 0.2857 0.2000  plane waves:    7010
 k-point 29 :   0.0000 0.4286 0.2000  plane waves:    7013
 k-point 30 :   0.1429 0.4286 0.2000  plane waves:    7022
 k-point 31 :   0.2857 0.4286 0.2000  plane waves:    7008
 k-point 32 :   0.4286 0.4286 0.2000  plane waves:    7009
 k-point 33 :   0.0000-0.4286 0.2000  plane waves:    7013
 k-point 34 :   0.1429-0.4286 0.2000  plane waves:    7022
 k-point 35 :   0.2857-0.4286 0.2000  plane waves:    7008
 k-point 36 :   0.4286-0.4286 0.2000  plane waves:    7009
 k-point 37 :   0.0000-0.2857 0.2000  plane waves:    7032
 k-point 38 :   0.1429-0.2857 0.2000  plane waves:    7022
 k-point 39 :   0.2857-0.2857 0.2000  plane waves:    7009
 k-point 40 :   0.4286-0.2857 0.2000  plane waves:    7010
 k-point 41 :   0.0000-0.1429 0.2000  plane waves:    7008
 k-point 42 :   0.1429-0.1429 0.2000  plane waves:    7028
 k-point 43 :   0.2857-0.1429 0.2000  plane waves:    7023
 k-point 44 :   0.4286-0.1429 0.2000  plane waves:    7019
 k-point 45 :   0.0000 0.0000 0.4000  plane waves:    7046
 k-point 46 :   0.1429 0.0000 0.4000  plane waves:    7038
 k-point 47 :   0.2857 0.0000 0.4000  plane waves:    7033
 k-point 48 :   0.4286 0.0000 0.4000  plane waves:    7032
 k-point 49 :   0.0000 0.1429 0.4000  plane waves:    7034
 k-point 50 :   0.1429 0.1429 0.4000  plane waves:    7023
 k-point 51 :   0.2857 0.1429 0.4000  plane waves:    7020
 k-point 52 :   0.4286 0.1429 0.4000  plane waves:    7026
 k-point 53 :   0.0000 0.2857 0.4000  plane waves:    7027
 k-point 54 :   0.1429 0.2857 0.4000  plane waves:    7019
 k-point 55 :   0.2857 0.2857 0.4000  plane waves:    7009
 k-point 56 :   0.4286 0.2857 0.4000  plane waves:    7025
 k-point 57 :   0.0000 0.4286 0.4000  plane waves:    7033
 k-point 58 :   0.1429 0.4286 0.4000  plane waves:    7023
 k-point 59 :   0.2857 0.4286 0.4000  plane waves:    7023
 k-point 60 :   0.4286 0.4286 0.4000  plane waves:    7004
 k-point 61 :   0.0000-0.4286 0.4000  plane waves:    7033
 k-point 62 :   0.1429-0.4286 0.4000  plane waves:    7023
 k-point 63 :   0.2857-0.4286 0.4000  plane waves:    7023
 k-point 64 :   0.4286-0.4286 0.4000  plane waves:    7004
 k-point 65 :   0.0000-0.2857 0.4000  plane waves:    7027
 k-point 66 :   0.1429-0.2857 0.4000  plane waves:    7019
 k-point 67 :   0.2857-0.2857 0.4000  plane waves:    7009
 k-point 68 :   0.4286-0.2857 0.4000  plane waves:    7025
 k-point 69 :   0.0000-0.1429 0.4000  plane waves:    7034
 k-point 70 :   0.1429-0.1429 0.4000  plane waves:    7023
 k-point 71 :   0.2857-0.1429 0.4000  plane waves:    7020
 k-point 72 :   0.4286-0.1429 0.4000  plane waves:    7026

 maximum and minimum number of plane-waves per node :      3551     3478

 maximum number of plane-waves:      7046
 maximum index in each direction: 
   IXMAX=   10   IYMAX=   11   IZMAX=   14
   IXMIN=  -11   IYMIN=  -11   IZMIN=  -15


 parallel 3D FFT for wavefunctions:
    minimum data exchange during FFTs selected (reduces bandwidth)
 parallel 3D FFT for charge:
    minimum data exchange during FFTs selected (reduces bandwidth)


 total amount of memory used by VASP MPI-rank0   699292. kBytes
=======================================================================

   base      :      30000. kBytes
   nonl-proj :     110706. kBytes
   fftplans  :       7479. kBytes
   grid      :      13770. kBytes
   one-center:        155. kBytes
   wavefun   :     537182. kBytes

     INWAV:  cpu time    0.0000: real time    0.0000
 Broyden mixing: mesh for mixing (old mesh)
   NGX = 21   NGY = 21   NGZ = 29
  (NGX  = 64   NGY  = 64   NGZ  = 96)
  gives a total of  12789 points

 initial charge density was supplied:
 charge density of overlapping atoms calculated
 number of electron     168.0000000 magnetization 
 keeping initial charge density in first step


--------------------------------------------------------------------------------------------------------


 Maximum index for augmentation-charges         5408 (set IRDMAX)


--------------------------------------------------------------------------------------------------------


 First call to EWALD:  gamma=   0.298
 Maximum number of real-space cells 3x 3x 2
 Maximum number of reciprocal cells 3x 3x 3

    FEWALD:  cpu time    0.0079: real time    0.0079


--------------------------------------- Iteration      1(   1)  ---------------------------------------


    POTLOK:  cpu time    0.0809: real time    0.0819
    SETDIJ:  cpu time    0.0327: real time    0.0329
     EDDAV:  cpu time   12.6552: real time   12.7240
 BZINTS: Fermi energy: 24.297456;168.000000 electrons
         Band energy: 719.465700;  BLOECHL correction: -0.076509
       DOS:  cpu time    8.6424: real time    8.6533
    --------------------------------------------
      LOOP:  cpu time   21.4112: real time   21.4921

 eigenvalue-minimisations  : 18616
 total energy-change (2. order) : 0.2429689E+04  (-0.8994008E+04)
 number of electron     168.0000000 magnetization 
 augmentation part      168.0000000 magnetization 

 Free energy of the ion-electron system (eV)
  ---------------------------------------------------
  alpha Z        PSCENC =       913.59836789
  Ewald energy   TEWEN  =    -13598.60011408
  -Hartree energ DENC   =     -5077.18880883
  -exchange      EXHF   =         0.00000000
  -V(xc)+E(xc)   XCENC  =       799.59508613
  PAW double counting   =     15139.82383566   -15476.23592026
  entropy T*S    EENTRO =         0.00000000
  eigenvalues    EBANDS =       719.46569996
  atomic energy  EATOM  =     19009.23125014
  Solvation  Ediel_sol  =         0.00000000
  ---------------------------------------------------
  free energy    TOTEN  =      2429.68939662 eV

  energy without entropy =     2429.68939662  energy(sigma->0) =     2429.68939662


--------------------------------------------------------------------------------------------------------




--------------------------------------- Iteration      1(   2)  ---------------------------------------


     EDDAV:  cpu time   13.0066: real time   13.0068
 BZINTS: Fermi energy: 10.522954;168.000000 electrons
         Band energy:***********;  BLOECHL correction: -0.022887
       DOS:  cpu time    0.4483: real time    0.4483
    --------------------------------------------
      LOOP:  cpu time   13.4549: real time   13.4551

 eigenvalue-minimisations  : 18432
 total energy-change (2. order) :-0.2250755E+04  (-0.2054739E+04)
 number of electron     168.0000000 magnetization 
 augmentation part      168.0000000 magnetization 

 Free energy of the ion-electron system (eV)
  ---------------------------------------------------
  alpha Z        PSCENC =       913.59836789
  Ewald energy   TEWEN  =    -13598.60011408
  -Hartree energ DENC   =     -5077.18880883
  -exchange      EXHF   =         0.00000000
  -V(xc)+E(xc)   XCENC  =       799.59508613
  PAW double counting   =     15139.82383566   -15476.23592026
  entropy T*S    EENTRO =         0.00000000
  eigenvalues    EBANDS =     -1531.28951841
  atomic energy  EATOM  =     19009.23125014
  Solvation  Ediel_sol  =         0.00000000
  ---------------------------------------------------
  free energy    TOTEN  =       178.93417824 eV

  energy without entropy =      178.93417824  energy(sigma->0) =      178.93417824


--------------------------------------------------------------------------------------------------------




--------------------------------------- Iteration      1(   3)  ---------------------------------------


     EDDAV:  cpu time   13.4779: real time   13.4781
 BZINTS: Fermi energy:  8.721731;168.000000 electrons
         Band energy:***********;  BLOECHL correction: -0.018616
       DOS:  cpu time    0.1354: real time    0.1354
    --------------------------------------------
      LOOP:  cpu time   13.6132: real time   13.6135

 eigenvalue-minimisations  : 19560
 total energy-change (2. order) :-0.3443212E+03  (-0.3228130E+03)
 number of electron     168.0000000 magnetization 
 augmentation part      168.0000000 magnetization 

 Free energy of the ion-electron system (eV)
  ---------------------------------------------------
  alpha Z        PSCENC =       913.59836789
  Ewald energy   TEWEN  =    -13598.60011408
  -Hartree energ DENC   =     -5077.18880883
  -exchange      EXHF   =         0.00000000
  -V(xc)+E(xc)   XCENC  =       799.59508613
  PAW double counting   =     15139.82383566   -15476.23592026
  entropy T*S    EENTRO =         0.00000000
  eigenvalues    EBANDS =     -1875.61076784
  atomic energy  EATOM  =     19009.23125014
  Solvation  Ediel_sol  =         0.00000000
  ---------------------------------------------------
  free energy    TOTEN  =      -165.38707118 eV

  energy without entropy =     -165.38707118  energy(sigma->0) =     -165.38707118


--------------------------------------------------------------------------------------------------------




--------------------------------------- Iteration      1(   4)  ---------------------------------------


     EDDAV:  cpu time   15.1634: real time   15.1637
 BZINTS: Fermi energy:  8.612807;168.000000 electrons
         Band energy:***********;  BLOECHL correction: -0.019524
       DOS:  cpu time    0.1386: real time    0.1386
    --------------------------------------------
      LOOP:  cpu time   15.3020: real time   15.3023

 eigenvalue-minimisations  : 22824
 total energy-change (2. order) :-0.2386580E+02  (-0.2356934E+02)
 number of electron     168.0000000 magnetization 
 augmentation part      168.0000000 magnetization 

 Free energy of the ion-electron system (eV)
  ---------------------------------------------------
  alpha Z        PSCENC =       913.59836789
  Ewald energy   TEWEN  =    -13598.60011408
  -Hartree energ DENC   =     -5077.18880883
  -exchange      EXHF   =         0.00000000
  -V(xc)+E(xc)   XCENC  =       799.59508613
  PAW double counting   =     15139.82383566   -15476.23592026
  entropy T*S    EENTRO =         0.00000000
  eigenvalues    EBANDS =     -1899.47656682
  atomic energy  EATOM  =     19009.23125014
  Solvation  Ediel_sol  =         0.00000000
  ---------------------------------------------------
  free energy    TOTEN  =      -189.25287017 eV

  energy without entropy =     -189.25287017  energy(sigma->0) =     -189.25287017


--------------------------------------------------------------------------------------------------------




--------------------------------------- Iteration      1(   5)  ---------------------------------------


     EDDAV:  cpu time   18.1368: real time   18.1940
 BZINTS: Fermi energy:  8.609938;168.000000 electrons
         Band energy:***********;  BLOECHL correction: -0.019508
       DOS:  cpu time    0.1384: real time    0.1384
    CHARGE:  cpu time    0.3032: real time    0.3032
    MIXING:  cpu time    0.0044: real time    0.0046
    --------------------------------------------
      LOOP:  cpu time   18.5828: real time   18.6401

 eigenvalue-minimisations  : 28336
 total energy-change (2. order) :-0.1005784E+01  (-0.9959724E+00)
 number of electron     168.0000093 magnetization 
 augmentation part       47.9488101 magnetization 

 Broyden mixing:
  rms(total) = 0.61451E+01    rms(broyden)= 0.61446E+01
  rms(prec ) = 0.85583E+01
  weight for this iteration     100.00

 Free energy of the ion-electron system (eV)
  ---------------------------------------------------
  alpha Z        PSCENC =       913.59836789
  Ewald energy   TEWEN  =    -13598.60011408
  -Hartree energ DENC   =     -5077.18880883
  -exchange      EXHF   =         0.00000000
  -V(xc)+E(xc)   XCENC  =       799.59508613
  PAW double counting   =     15139.82383566   -15476.23592026
  entropy T*S    EENTRO =         0.00000000
  eigenvalues    EBANDS =     -1900.48235050
  atomic energy  EATOM  =     19009.23125014
  Solvation  Ediel_sol  =         0.00000000
  ---------------------------------------------------
  free energy    TOTEN  =      -190.25865385 eV

  energy without entropy =     -190.25865385  energy(sigma->0) =     -190.25865385


--------------------------------------------------------------------------------------------------------




--------------------------------------- Iteration      1(   6)  ---------------------------------------


    POTLOK:  cpu time    0.0825: real time    0.0829
    SETDIJ:  cpu time    0.0075: real time    0.0075
     EDDAV:  cpu time   15.8251: real time   15.8293
 BZINTS: Fermi energy:  4.118108;168.000000 electrons
         Band energy:***********;  BLOECHL correction: -0.015171
       DOS:  cpu time    0.1398: real time    0.1398
    CHARGE:  cpu time    0.2968: real time    0.2969
    MIXING:  cpu time    0.0041: real time    0.0040
    --------------------------------------------
      LOOP:  cpu time   16.3558: real time   16.3604

 eigenvalue-minimisations  : 24000
 total energy-change (2. order) :-0.3800700E+02  (-0.3022355E+02)
 number of electron     168.0000298 magnetization 
 augmentation part       61.0751164 magnetization 

 Broyden mixing:
  rms(total) = 0.12627E+02    rms(broyden)= 0.12627E+02
  rms(prec ) = 0.16173E+02
  weight for this iteration     100.00

 eigenvalues of (default mixing * dielectric matrix)
  average eigenvalue GAMMA=   0.2082
  0.2082

 Free energy of the ion-electron system (eV)
  ---------------------------------------------------
  alpha Z        PSCENC =       913.59836789
  Ewald energy   TEWEN  =    -13598.60011408
  -Hartree energ DENC   =     -4758.46699692
  -exchange      EXHF   =         0.00000000
  -V(xc)+E(xc)   XCENC  =       796.19496378
  PAW double counting   =     15455.67790008   -15772.32962778
  entropy T*S    EENTRO =         0.00000000
  eigenvalues    EBANDS =     -2273.57140090
  atomic energy  EATOM  =     19009.23125014
  Solvation  Ediel_sol  =         0.00000000
  ---------------------------------------------------
  free energy    TOTEN  =      -228.26565779 eV

  energy without entropy =     -228.26565779  energy(sigma->0) =     -228.26565779


--------------------------------------------------------------------------------------------------------




--------------------------------------- Iteration      1(   7)  ---------------------------------------


    POTLOK:  cpu time    0.0854: real time    0.0854
    SETDIJ:  cpu time    0.0074: real time    0.0073
     EDDAV:  cpu time   14.4031: real time   14.4034
 BZINTS: Fermi energy:  5.026310;168.000000 electrons
         Band energy:***********;  BLOECHL correction: -0.006562
       DOS:  cpu time    0.1361: real time    0.1361
    CHARGE:  cpu time    0.2941: real time    0.2942
    MIXING:  cpu time    0.0042: real time    0.0042
    --------------------------------------------
      LOOP:  cpu time   14.9304: real time   14.9306

 eigenvalue-minimisations  : 20704
 total energy-change (2. order) : 0.8277215E+02  (-0.1265734E+02)
 number of electron     168.0000155 magnetization 
 augmentation part       50.9224884 magnetization 

 Broyden mixing:
  rms(total) = 0.21948E+01    rms(broyden)= 0.21940E+01
  rms(prec ) = 0.35305E+01
  weight for this iteration     100.00

 eigenvalues of (default mixing * dielectric matrix)
  average eigenvalue GAMMA=   0.6053
  0.9067  0.3038

 Free energy of the ion-electron system (eV)
  ---------------------------------------------------
  alpha Z        PSCENC =       913.59836789
  Ewald energy   TEWEN  =    -13598.60011408
  -Hartree energ DENC   =     -4958.87896997
  -exchange      EXHF   =         0.00000000
  -V(xc)+E(xc)   XCENC  =       800.52796333
  PAW double counting   =     16396.19529542   -16751.74494616
  entropy T*S    EENTRO =         0.00000000
  eigenvalues    EBANDS =     -1955.82235259
  atomic energy  EATOM  =     19009.23125014
  Solvation  Ediel_sol  =         0.00000000
  ---------------------------------------------------
  free energy    TOTEN  =      -145.49350600 eV

  energy without entropy =     -145.49350600  energy(sigma->0) =     -145.49350600


--------------------------------------------------------------------------------------------------------




--------------------------------------- Iteration      1(   8)  ---------------------------------------


    POTLOK:  cpu time    0.0855: real time    0.0855
    SETDIJ:  cpu time    0.0073: real time    0.0073
     EDDAV:  cpu time   15.2164: real time   15.2167
 BZINTS: Fermi energy:  4.381142;168.000000 electrons
         Band energy:***********;  BLOECHL correction: -0.046722
       DOS:  cpu time    0.1347: real time    0.1347
    CHARGE:  cpu time    0.3011: real time    0.3011
    MIXING:  cpu time    0.0041: real time    0.0041
    --------------------------------------------
      LOOP:  cpu time   15.7492: real time   15.7494

 eigenvalue-minimisations  : 22680
 total energy-change (2. order) :-0.5704202E+02  (-0.2667173E+02)
 number of electron     168.0000187 magnetization 
 augmentation part       51.1012479 magnetization 

 Broyden mixing:
  rms(total) = 0.97931E+01    rms(broyden)= 0.97929E+01
  rms(prec ) = 0.14432E+02
  weight for this iteration     100.00

 eigenvalues of (default mixing * dielectric matrix)
  average eigenvalue GAMMA=   0.5467
  1.2287  0.2925  0.1190

 Free energy of the ion-electron system (eV)
  ---------------------------------------------------
  alpha Z        PSCENC =       913.59836789
  Ewald energy   TEWEN  =    -13598.60011408
  -Hartree energ DENC   =     -4915.28398498
  -exchange      EXHF   =         0.00000000
  -V(xc)+E(xc)   XCENC  =       798.91970540
  PAW double counting   =     16672.81150579   -17036.82012816
  entropy T*S    EENTRO =         0.00000000
  eigenvalues    EBANDS =     -2046.39212398
  atomic energy  EATOM  =     19009.23125014
  Solvation  Ediel_sol  =         0.00000000
  ---------------------------------------------------
  free energy    TOTEN  =      -202.53552198 eV

  energy without entropy =     -202.53552198  energy(sigma->0) =     -202.53552198


--------------------------------------------------------------------------------------------------------




--------------------------------------- Iteration      1(   9)  ---------------------------------------


    POTLOK:  cpu time    0.0858: real time    0.0858
    SETDIJ:  cpu time    0.0075: real time    0.0075
     EDDAV:  cpu time   14.5536: real time   14.5538
 BZINTS: Fermi energy:  4.776873;168.000000 electrons
         Band energy:***********;  BLOECHL correction: -0.018385
       DOS:  cpu time    0.1309: real time    0.1309
    CHARGE:  cpu time    0.2934: real time    0.2934
    MIXING:  cpu time    0.0044: real time    0.0048
    --------------------------------------------
      LOOP:  cpu time   15.0754: real time   15.0760

 eigenvalue-minimisations  : 21656
 total energy-change (2. order) : 0.4998790E+02  (-0.2173596E+01)
 number of electron     168.0000177 magnetization 
 augmentation part       51.6957460 magnetization 

 Broyden mixing:
  rms(total) = 0.44378E+01    rms(broyden)= 0.44377E+01
  rms(prec ) = 0.71127E+01
  weight for this iteration     100.00

 eigenvalues of (default mixing * dielectric matrix)
  average eigenvalue GAMMA=   0.4985
  0.7613  0.7613  0.2412  0.2303

 Free energy of the ion-electron system (eV)
  ---------------------------------------------------
  alpha Z        PSCENC =       913.59836789
  Ewald energy   TEWEN  =    -13598.60011408
  -Hartree energ DENC   =     -4893.55059880
  -exchange      EXHF   =         0.00000000
  -V(xc)+E(xc)   XCENC  =       798.20083242
  PAW double counting   =     17059.88806676   -17433.43397381
  entropy T*S    EENTRO =         0.00000000
  eigenvalues    EBANDS =     -2007.88144984
  atomic energy  EATOM  =     19009.23125014
  Solvation  Ediel_sol  =         0.00000000
  ---------------------------------------------------
  free energy    TOTEN  =      -152.54761931 eV

  energy without entropy =     -152.54761931  energy(sigma->0) =     -152.54761931


--------------------------------------------------------------------------------------------------------




--------------------------------------- Iteration      1(  10)  ---------------------------------------


    POTLOK:  cpu time    0.0727: real time    0.0727
    SETDIJ:  cpu time    0.0330: real time    0.0330
     EDDAV:  cpu time   15.4212: real time   15.4214
 BZINTS: Fermi energy:  4.794946;168.000000 electrons
         Band energy:***********;  BLOECHL correction: -0.009007
       DOS:  cpu time    0.1379: real time    0.1379
    CHARGE:  cpu time    0.3154: real time    0.3154
    MIXING:  cpu time    0.0049: real time    0.0049
    --------------------------------------------
      LOOP:  cpu time   15.9849: real time   15.9852

 eigenvalue-minimisations  : 22216
 total energy-change (2. order) : 0.5920554E+01  (-0.2425948E+01)
 number of electron     168.0000156 magnetization 
 augmentation part       51.1869324 magnetization 

 Broyden mixing:
  rms(total) = 0.25337E+01    rms(broyden)= 0.25328E+01
  rms(prec ) = 0.42115E+01
  weight for this iteration     100.00

 eigenvalues of (default mixing * dielectric matrix)
  average eigenvalue GAMMA=   0.7104
  1.7469  1.0038  0.3354  0.2331  0.2331

 Free energy of the ion-electron system (eV)
  ---------------------------------------------------
  alpha Z        PSCENC =       913.59836789
  Ewald energy   TEWEN  =    -13598.60011408
  -Hartree energ DENC   =     -4915.92224047
  -exchange      EXHF   =         0.00000000
  -V(xc)+E(xc)   XCENC  =       798.39806003
  PAW double counting   =     16914.01502360   -17286.80408688
  entropy T*S    EENTRO =         0.00000000
  eigenvalues    EBANDS =     -1980.54332521
  atomic energy  EATOM  =     19009.23125014
  Solvation  Ediel_sol  =         0.00000000
  ---------------------------------------------------
  free energy    TOTEN  =      -146.62706498 eV

  energy without entropy =     -146.62706498  energy(sigma->0) =     -146.62706498


--------------------------------------------------------------------------------------------------------




--------------------------------------- Iteration      1(  11)  ---------------------------------------


    POTLOK:  cpu time    0.0868: real time    0.0868
    SETDIJ:  cpu time    0.0070: real time    0.0070
     EDDAV:  cpu time   14.2521: real time   14.2523
 BZINTS: Fermi energy:  4.473261;168.000000 electrons
         Band energy:***********;  BLOECHL correction: -0.027104
       DOS:  cpu time    0.1419: real time    0.1419
    CHARGE:  cpu time    0.2985: real time    0.2985
    MIXING:  cpu time    0.0048: real time    0.0048
    --------------------------------------------
      LOOP:  cpu time   14.7912: real time   14.7914

 eigenvalue-minimisations  : 21376
 total energy-change (2. order) : 0.1419042E+01  (-0.7941526E+00)
 number of electron     168.0000162 magnetization 
 augmentation part       51.7080341 magnetization 

 Broyden mixing:
  rms(total) = 0.60393E+00    rms(broyden)= 0.60333E+00
  rms(prec ) = 0.94470E+00
  weight for this iteration     100.00

 eigenvalues of (default mixing * dielectric matrix)
  average eigenvalue GAMMA=   0.7235
  1.9626  0.9895  0.6140  0.3207  0.2271  0.2271

 Free energy of the ion-electron system (eV)
  ---------------------------------------------------
  alpha Z        PSCENC =       913.59836789
  Ewald energy   TEWEN  =    -13598.60011408
  -Hartree energ DENC   =     -4896.41269246
  -exchange      EXHF   =         0.00000000
  -V(xc)+E(xc)   XCENC  =       797.93917726
  PAW double counting   =     17329.09024269   -17712.59157025
  entropy T*S    EENTRO =         0.00000000
  eigenvalues    EBANDS =     -1987.46268386
  atomic energy  EATOM  =     19009.23125014
  Solvation  Ediel_sol  =         0.00000000
  ---------------------------------------------------
  free energy    TOTEN  =      -145.20802267 eV

  energy without entropy =     -145.20802267  energy(sigma->0) =     -145.20802267


--------------------------------------------------------------------------------------------------------




--------------------------------------- Iteration      1(  12)  ---------------------------------------


    POTLOK:  cpu time    0.0866: real time    0.0866
    SETDIJ:  cpu time    0.0074: real time    0.0074
     EDDAV:  cpu time   14.4981: real time   14.4984
 BZINTS: Fermi energy:  4.578458;168.000000 electrons
         Band energy:***********;  BLOECHL correction: -0.026575
       DOS:  cpu time    0.1389: real time    0.1389
    CHARGE:  cpu time    0.3204: real time    0.3204
    MIXING:  cpu time    0.0048: real time    0.0048
    --------------------------------------------
      LOOP:  cpu time   15.0562: real time   15.0564

 eigenvalue-minimisations  : 21848
 total energy-change (2. order) : 0.4171956E-01  (-0.4449565E-01)
 number of electron     168.0000158 magnetization 
 augmentation part       51.4707027 magnetization 

 Broyden mixing:
  rms(total) = 0.60674E+00    rms(broyden)= 0.60668E+00
  rms(prec ) = 0.99844E+00
  weight for this iteration     100.00

 eigenvalues of (default mixing * dielectric matrix)
  average eigenvalue GAMMA=   0.7087
  2.1007  0.7774  0.7774  0.2305  0.2305  0.4957  0.3483

 Free energy of the ion-electron system (eV)
  ---------------------------------------------------
  alpha Z        PSCENC =       913.59836789
  Ewald energy   TEWEN  =    -13598.60011408
  -Hartree energ DENC   =     -4901.93345980
  -exchange      EXHF   =         0.00000000
  -V(xc)+E(xc)   XCENC  =       798.11433329
  PAW double counting   =     17393.19061766   -17778.78591716
  entropy T*S    EENTRO =         0.00000000
  eigenvalues    EBANDS =     -1979.98138105
  atomic energy  EATOM  =     19009.23125014
  Solvation  Ediel_sol  =         0.00000000
  ---------------------------------------------------
  free energy    TOTEN  =      -145.16630310 eV

  energy without entropy =     -145.16630310  energy(sigma->0) =     -145.16630310


--------------------------------------------------------------------------------------------------------




--------------------------------------- Iteration      1(  13)  ---------------------------------------


    POTLOK:  cpu time    0.0877: real time    0.0877
    SETDIJ:  cpu time    0.0251: real time    0.0251
     EDDAV:  cpu time   14.2229: real time   14.2232
 BZINTS: Fermi energy:  4.577215;168.000000 electrons
         Band energy:***********;  BLOECHL correction: -0.027053
       DOS:  cpu time    0.1386: real time    0.1386
    CHARGE:  cpu time    0.2997: real time    0.2997
    MIXING:  cpu time    0.0053: real time    0.0053
    --------------------------------------------
      LOOP:  cpu time   14.7792: real time   14.7795

 eigenvalue-minimisations  : 20952
 total energy-change (2. order) : 0.2060385E-01  (-0.6707677E-02)
 number of electron     168.0000160 magnetization 
 augmentation part       51.4943169 magnetization 

 Broyden mixing:
  rms(total) = 0.49743E+00    rms(broyden)= 0.49742E+00
  rms(prec ) = 0.81917E+00
  weight for this iteration     100.00

 eigenvalues of (default mixing * dielectric matrix)
  average eigenvalue GAMMA=   0.8191
  2.2613  1.1439  1.1439  0.7859  0.2294  0.2294  0.3327  0.4264

 Free energy of the ion-electron system (eV)
  ---------------------------------------------------
  alpha Z        PSCENC =       913.59836789
  Ewald energy   TEWEN  =    -13598.60011408
  -Hartree energ DENC   =     -4902.03759957
  -exchange      EXHF   =         0.00000000
  -V(xc)+E(xc)   XCENC  =       798.11054689
  PAW double counting   =     17423.78302312   -17809.81434661
  entropy T*S    EENTRO =         0.00000000
  eigenvalues    EBANDS =     -1979.41682703
  atomic energy  EATOM  =     19009.23125014
  Solvation  Ediel_sol  =         0.00000000
  ---------------------------------------------------
  free energy    TOTEN  =      -145.14569925 eV

  energy without entropy =     -145.14569925  energy(sigma->0) =     -145.14569925


--------------------------------------------------------------------------------------------------------




--------------------------------------- Iteration      1(  14)  ---------------------------------------


    POTLOK:  cpu time    0.0861: real time    0.0861
    SETDIJ:  cpu time    0.0076: real time    0.0076
     EDDAV:  cpu time   16.0978: real time   16.0981
 BZINTS: Fermi energy:  4.592959;168.000000 electrons
         Band energy:***********;  BLOECHL correction: -0.026221
       DOS:  cpu time    0.1356: real time    0.1356
    CHARGE:  cpu time    0.2974: real time    0.2974
    MIXING:  cpu time    0.0052: real time    0.0052
    --------------------------------------------
      LOOP:  cpu time   16.6298: real time   16.6301

 eigenvalue-minimisations  : 25080
 total energy-change (2. order) : 0.3857823E-01  (-0.1254859E-01)
 number of electron     168.0000159 magnetization 
 augmentation part       51.4844390 magnetization 

 Broyden mixing:
  rms(total) = 0.13578E+00    rms(broyden)= 0.13564E+00
  rms(prec ) = 0.18655E+00
  weight for this iteration     100.00

 eigenvalues of (default mixing * dielectric matrix)
  average eigenvalue GAMMA=   0.8217
  2.1481  1.2464  1.2464  0.9682  0.2294  0.2294  0.3333  0.4968  0.4968

 Free energy of the ion-electron system (eV)
  ---------------------------------------------------
  alpha Z        PSCENC =       913.59836789
  Ewald energy   TEWEN  =    -13598.60011408
  -Hartree energ DENC   =     -4903.84401161
  -exchange      EXHF   =         0.00000000
  -V(xc)+E(xc)   XCENC  =       798.14471042
  PAW double counting   =     17438.60661060   -17824.48940149
  entropy T*S    EENTRO =         0.00000000
  eigenvalues    EBANDS =     -1977.75453289
  atomic energy  EATOM  =     19009.23125014
  Solvation  Ediel_sol  =         0.00000000
  ---------------------------------------------------
  free energy    TOTEN  =      -145.10712102 eV

  energy without entropy =     -145.10712102  energy(sigma->0) =     -145.10712102


--------------------------------------------------------------------------------------------------------




--------------------------------------- Iteration      1(  15)  ---------------------------------------


    POTLOK:  cpu time    0.0861: real time    0.0861
    SETDIJ:  cpu time    0.0074: real time    0.0074
     EDDAV:  cpu time   15.0510: real time   15.0512
 BZINTS: Fermi energy:  4.620379;168.000000 electrons
         Band energy:***********;  BLOECHL correction: -0.026010
       DOS:  cpu time    0.1432: real time    0.1432
    CHARGE:  cpu time    0.2987: real time    0.2988
    MIXING:  cpu time    0.0055: real time    0.0055
    --------------------------------------------
      LOOP:  cpu time   15.5918: real time   15.5920

 eigenvalue-minimisations  : 22656
 total energy-change (2. order) : 0.2957710E-02  (-0.8900715E-03)
 number of electron     168.0000158 magnetization 
 augmentation part       51.4321714 magnetization 

 Broyden mixing:
  rms(total) = 0.14647E+00    rms(broyden)= 0.14646E+00
  rms(prec ) = 0.23295E+00
  weight for this iteration     100.00

 eigenvalues of (default mixing * dielectric matrix)
  average eigenvalue GAMMA=   0.8617
  2.1237  1.7448  1.2927  0.8076  0.8076  0.2294  0.2294  0.3321  0.5616  0.4883

 Free energy of the ion-electron system (eV)
  ---------------------------------------------------
  alpha Z        PSCENC =       913.59836789
  Ewald energy   TEWEN  =    -13598.60011408
  -Hartree energ DENC   =     -4905.93698312
  -exchange      EXHF   =         0.00000000
  -V(xc)+E(xc)   XCENC  =       798.19833389
  PAW double counting   =     17431.91190191   -17817.50261803
  entropy T*S    EENTRO =         0.00000000
  eigenvalues    EBANDS =     -1976.00430192
  atomic energy  EATOM  =     19009.23125014
  Solvation  Ediel_sol  =         0.00000000
  ---------------------------------------------------
  free energy    TOTEN  =      -145.10416331 eV

  energy without entropy =     -145.10416331  energy(sigma->0) =     -145.10416331


--------------------------------------------------------------------------------------------------------




--------------------------------------- Iteration      1(  16)  ---------------------------------------


    POTLOK:  cpu time    0.0845: real time    0.0845
    SETDIJ:  cpu time    0.0072: real time    0.0072
     EDDAV:  cpu time   15.0606: real time   15.0608
 BZINTS: Fermi energy:  4.623078;168.000000 electrons
         Band energy:***********;  BLOECHL correction: -0.025816
       DOS:  cpu time    0.1435: real time    0.1435
    CHARGE:  cpu time    0.2964: real time    0.2964
    MIXING:  cpu time    0.0058: real time    0.0058
    --------------------------------------------
      LOOP:  cpu time   15.5981: real time   15.5983

 eigenvalue-minimisations  : 22888
 total energy-change (2. order) : 0.2471304E-02  (-0.9872577E-03)
 number of electron     168.0000159 magnetization 
 augmentation part       51.4371283 magnetization 

 Broyden mixing:
  rms(total) = 0.58803E-01    rms(broyden)= 0.58779E-01
  rms(prec ) = 0.71020E-01
  weight for this iteration     100.00

 eigenvalues of (default mixing * dielectric matrix)
  average eigenvalue GAMMA=   0.8997
  2.1633  2.1633  1.1058  0.9900  0.9900  0.7416  0.2294  0.2294  0.3322  0.4757
  0.4757

 Free energy of the ion-electron system (eV)
  ---------------------------------------------------
  alpha Z        PSCENC =       913.59836789
  Ewald energy   TEWEN  =    -13598.60011408
  -Hartree energ DENC   =     -4906.49554276
  -exchange      EXHF   =         0.00000000
  -V(xc)+E(xc)   XCENC  =       798.21567846
  PAW double counting   =     17428.07738258   -17813.45778193
  entropy T*S    EENTRO =         0.00000000
  eigenvalues    EBANDS =     -1975.67093232
  atomic energy  EATOM  =     19009.23125014
  Solvation  Ediel_sol  =         0.00000000
[...]
     61       1.1751      2.00000
     62       1.5287      2.00000
     63       1.8316      2.00000
     64       1.9262      2.00000
     65       2.1907      2.00000
     66       2.3749      2.00000
     67       2.4707      2.00000
     68       2.5048      2.00000
     69       2.7268      2.00000
     70       2.7570      2.00000
     71       2.8745      2.00000
     72       2.9796      2.00000
     73       3.0335      2.00000
     74       3.1380      2.00000
     75       3.2578      2.00000
     76       3.3295      2.00000
     77       4.0755      2.00000
     78       4.1503      2.00000
     79       4.1660      2.00000
     80       4.2163      2.00000
     81       4.3934      2.00000
     82       4.4313      2.00000
     83       4.4985      2.00000
     84       4.5570      2.05019
     85       4.6229      1.08225
     86       4.6431      0.14038
     87       4.7571      0.00000
     88       4.7685      0.00000
     89       5.4401      0.00000
     90       5.5032      0.00000
     91       6.1368      0.00000
     92       6.3049      0.00000
     93       6.9512      0.00000
     94       7.1510      0.00000
     95       7.5289      0.00000
     96       7.7146      0.00000
     97      10.9473      0.00000
     98      10.9939      0.00000
     99      11.1844      0.00000
    100      11.2007      0.00000
    101      11.4069      0.00000
    102      11.4366      0.00000
    103      11.5376      0.00000
    104      11.6742      0.00000
    105      11.7320      0.00000
    106      11.7711      0.00000
    107      11.8546      0.00000
    108      11.9327      0.00000
    109      12.1216      0.00000
    110      12.2402      0.00000
    111      12.2591      0.00000
    112      12.4468      0.00000
    113      12.5959      0.00000
    114      12.6505      0.00000
    115      12.8114      0.00000
    116      12.8381      0.00000
    117      13.1090      0.00000
    118      13.6361      0.00000
    119      15.1608      0.00000
    120      15.5262      0.00000
    121      16.4525      0.00000
    122      16.6088      0.00000
    123      17.0685      0.00000
    124      17.3626      0.00000
    125      17.4414      0.00000
    126      17.7451      0.00000
    127      18.0276      0.00000
    128      18.4845      0.00000

 k-point    72 :       0.4286   -0.1429    0.4000
  band No.  band energies     occupation 
      1     -49.4911      2.00000
      2     -49.4911      2.00000
      3     -49.3309      2.00000
      4     -49.3309      2.00000
      5     -49.2955      2.00000
      6     -49.2955      2.00000
      7     -49.0626      2.00000
      8     -49.0626      2.00000
      9     -48.9198      2.00000
     10     -48.9198      2.00000
     11     -48.8792      2.00000
     12     -48.8792      2.00000
     13     -33.6226      2.00000
     14     -33.6186      2.00000
     15     -33.6175      2.00000
     16     -33.6137      2.00000
     17     -15.3525      2.00000
     18     -15.3220      2.00000
     19     -15.2570      2.00000
     20     -15.2367      2.00000
     21     -15.0815      2.00000
     22     -15.0540      2.00000
     23     -15.0032      2.00000
     24     -14.9715      2.00000
     25     -14.9138      2.00000
     26     -14.8734      2.00000
     27     -14.8669      2.00000
     28     -14.8489      2.00000
     29     -13.1215      2.00000
     30     -13.0106      2.00000
     31     -12.7981      2.00000
     32     -12.7429      2.00000
     33     -12.4921      2.00000
     34     -12.4782      2.00000
     35     -12.4296      2.00000
     36     -12.4043      2.00000
     37     -12.3238      2.00000
     38     -12.3015      2.00000
     39     -12.2938      2.00000
     40     -12.2680      2.00000
     41      -1.2701      2.00000
     42      -1.1969      2.00000
     43      -1.1352      2.00000
     44      -0.9759      2.00000
     45      -0.7610      2.00000
     46      -0.6710      2.00000
     47      -0.4961      2.00000
     48      -0.4561      2.00000
     49      -0.3198      2.00000
     50      -0.2222      2.00000
     51      -0.1644      2.00000
     52      -0.0923      2.00000
     53      -0.0766      2.00000
     54      -0.0415      2.00000
     55       0.1989      2.00000
     56       0.2462      2.00000
     57       0.2966      2.00000
     58       0.3175      2.00000
     59       0.7460      2.00000
     60       0.8588      2.00000
     61       1.0311      2.00000
     62       1.1038      2.00000
     63       1.2181      2.00000
     64       1.3872      2.00000
     65       2.3581      2.00000
     66       2.4066      2.00000
     67       2.5606      2.00000
     68       2.6031      2.00000
     69       2.7320      2.00000
     70       2.7882      2.00000
     71       2.8044      2.00000
     72       2.9325      2.00000
     73       3.0394      2.00000
     74       3.1321      2.00000
     75       3.2062      2.00000
     76       3.2543      2.00000
     77       4.1006      2.00000
     78       4.2190      2.00000
     79       4.3210      2.00000
     80       4.3767      2.00000
     81       4.3898      2.00000
     82       4.4589      2.00000
     83       4.4909      2.00000
     84       4.5395      2.00936
     85       4.6151      1.30008
     86       4.6545      0.05667
     87       4.6808      0.00000
     88       4.6951      0.00000
     89       5.7652      0.00000
     90       5.8962      0.00000
     91       6.1239      0.00000
     92       6.2762      0.00000
     93       6.8531      0.00000
     94       7.0848      0.00000
     95       7.2012      0.00000
     96       7.4651      0.00000
     97      11.1536      0.00000
     98      11.1712      0.00000
     99      11.2723      0.00000
    100      11.3351      0.00000
    101      11.3960      0.00000
    102      11.4392      0.00000
    103      11.4621      0.00000
    104      11.5392      0.00000
    105      11.7934      0.00000
    106      11.8748      0.00000
    107      11.9286      0.00000
    108      11.9503      0.00000
    109      12.1976      0.00000
    110      12.2546      0.00000
    111      12.2992      0.00000
    112      12.4103      0.00000
    113      12.6953      0.00000
    114      12.7157      0.00000
    115      12.7766      0.00000
    116      12.7985      0.00000
    117      13.6845      0.00000
    118      14.2432      0.00000
    119      14.4489      0.00000
    120      14.9636      0.00000
    121      16.7293      0.00000
    122      16.8099      0.00000
    123      17.3144      0.00000
    124      17.4631      0.00000
    125      17.5820      0.00000
    126      17.7978      0.00000
    127      18.0100      0.00000
    128      18.2827      0.00000


--------------------------------------------------------------------------------------------------------


 soft charge-density along one line, spin component           1
         0         1         2         3         4         5         6         7         8         9
 total charge-density along one line

 pseudopotential strength for first ion, spin component:           1
-17.742  -3.909   0.000   0.000  -0.002  -0.000  -0.000   0.002
 -3.909  -2.766  -0.000   0.000  -0.001   0.000   0.000  -0.000
  0.000  -0.000 -18.460  -0.000   0.012   5.500   0.000  -0.011
  0.000   0.000  -0.000 -18.460  -0.000   0.000   5.500   0.000
 -0.002  -0.001   0.012  -0.000 -18.464  -0.011   0.000   5.504
 -0.000   0.000   5.500   0.000  -0.011   8.610  -0.000   0.006
 -0.000   0.000   0.000   5.500   0.000  -0.000   8.611  -0.000
  0.002  -0.000  -0.011   0.000   5.504   0.006  -0.000   8.609
  0.011   0.003  -0.000  -0.000  -0.000   0.001   0.000   0.002
 -0.000  -0.000   0.000   0.000  -0.000  -0.001   0.001   0.000
  0.001   0.000  -0.000   0.000   0.001   0.001  -0.000  -0.000
 -0.000  -0.000  -0.000  -0.001  -0.000   0.000   0.002   0.000
 -0.002  -0.001  -0.001  -0.000  -0.002   0.002   0.000   0.002
  0.013   0.003  -0.000  -0.000  -0.000   0.001   0.000   0.002
 -0.000  -0.000   0.000   0.000  -0.000  -0.001   0.001   0.000
  0.001   0.000  -0.000   0.000   0.001   0.001  -0.000  -0.000
 -0.001  -0.000  -0.000  -0.001  -0.000   0.000   0.002   0.000
 -0.002  -0.001  -0.001  -0.000  -0.003   0.002   0.000   0.002
 total augmentation occupancy for first ion, spin component:           1
  2.001   0.010   0.000  -0.000  -0.000   0.000  -0.000   0.000  -0.001  -0.000  -0.000   0.000   0.001  -0.002   0.000   0.000
  0.010   0.513   0.000  -0.000   0.001   0.000   0.001  -0.002   0.077  -0.002  -0.009  -0.001  -0.018  -0.044   0.001   0.006
  0.000   0.000   2.006   0.000  -0.000   0.007   0.000  -0.002   0.003  -0.001   0.008  -0.000   0.010  -0.000   0.000  -0.002
 -0.000  -0.000   0.000   2.006  -0.000   0.000   0.007   0.000  -0.000   0.008   0.000   0.006   0.001   0.000  -0.002  -0.000
 -0.000   0.001  -0.000  -0.000   2.006  -0.002   0.000   0.007   0.008   0.000   0.004   0.001  -0.004  -0.002  -0.000  -0.001
  0.000   0.000   0.007   0.000  -0.002   0.033  -0.000   0.004  -0.013   0.003  -0.028   0.001  -0.035   0.007  -0.002   0.016
 -0.000   0.001   0.000   0.007   0.000  -0.000   0.032   0.000   0.001  -0.030  -0.000  -0.016  -0.003  -0.000   0.017   0.000
  0.000  -0.002  -0.002   0.000   0.007   0.004   0.000   0.032  -0.024   0.000  -0.014  -0.002   0.026   0.013  -0.000   0.008
 -0.001   0.077   0.003  -0.000   0.008  -0.013   0.001  -0.024   0.303  -0.010   0.038  -0.002   0.092  -0.170   0.005  -0.021
 -0.000  -0.002  -0.001   0.008   0.000   0.003  -0.030   0.000  -0.010   0.357  -0.006   0.128  -0.001   0.005  -0.206   0.003
 -0.000  -0.009   0.008   0.000   0.004  -0.028  -0.000  -0.014   0.038  -0.006   0.286  -0.001   0.030  -0.021   0.003  -0.160
  0.000  -0.001  -0.000   0.006   0.001   0.001  -0.016  -0.002  -0.002   0.128  -0.001   0.409   0.005   0.001  -0.073   0.000
  0.001  -0.018   0.010   0.001  -0.004  -0.035  -0.003   0.026   0.092  -0.001   0.030   0.005   0.371  -0.052   0.000  -0.017
 -0.002  -0.044  -0.000   0.000  -0.002   0.007  -0.000   0.013  -0.170   0.005  -0.021   0.001  -0.052   0.097  -0.003   0.012
  0.000   0.001   0.000  -0.002  -0.000  -0.002   0.017  -0.000   0.005  -0.206   0.003  -0.073   0.000  -0.003   0.121  -0.002
  0.000   0.006  -0.002  -0.000  -0.001   0.016   0.000   0.008  -0.021   0.003  -0.160   0.000  -0.017   0.012  -0.002   0.091
  0.000   0.001   0.000  -0.002  -0.000  -0.000   0.008   0.001   0.001  -0.073   0.000  -0.234  -0.002  -0.001   0.043  -0.000
  0.000   0.010  -0.002  -0.000   0.000   0.020   0.002  -0.015  -0.052   0.000  -0.017  -0.002  -0.215   0.029  -0.000   0.010


------------------------ aborting loop because EDIFF is reached ----------------------------------------


    CHARGE:  cpu time    0.3118: real time    0.3119
    FORLOC:  cpu time    0.0169: real time    0.0169
    FORNL :  cpu time    6.5169: real time    6.5346
    STRESS:  cpu time    8.7932: real time    8.7933
    FORCOR:  cpu time    0.1004: real time    0.1004
    FORHAR:  cpu time    0.0325: real time    0.0325
    MIXING:  cpu time    0.0072: real time    0.0072
    OFIELD:  cpu time    0.0000: real time    0.0000

  FORCE on cell =-STRESS in cart. coord.  units (eV):
  Direction    XX          YY          ZZ          XY          YZ          ZX
  --------------------------------------------------------------------------------------
  Alpha Z   913.59837   913.59837   913.59837
  Ewald   -4642.13938 -4561.98737 -4394.51408    -0.00000    -9.21849     0.00000
  Hartree  1571.76057  1618.90340  1716.62820    -0.00000    -7.12053    -0.00000
  E(xc)    -878.14245  -878.05365  -877.93641     0.00000    -0.00828     0.00000
  Local     188.28037    53.95414  -202.56623    -0.00000    16.10157    -0.00000
  n-local  -547.08348  -550.25667  -546.91521     0.72649     0.09837    -0.01797
  augment   756.53432   760.62949   755.07086     0.00000     0.11425     0.00000
  Kinetic  2624.34485  2628.09720  2623.73246    -1.17588     0.20626    -0.38598
  Fock        0.00000     0.00000     0.00000     0.00000     0.00000     0.00000
  -------------------------------------------------------------------------------------
  Total     -12.84684   -15.11509   -12.90205     0.00000     0.17315     0.00000
  in kB     -97.85660  -115.13426   -98.27712     0.00000     1.31891     0.00000
  external pressure =     -103.76 kB  Pullay stress =        0.00 kB


 VOLUME and BASIS-vectors are now :
 -----------------------------------------------------------------------------
  energy-cutoff  :      600.00
  volume of cell :      210.34
      direct lattice vectors                 reciprocal lattice vectors
     5.330110000  0.000000000  0.000000000     0.187613389  0.000000000  0.000000000
     0.000000000  5.321210000  0.000000000     0.000000000  0.187927182  0.000000000
     0.000000000  0.000000000  7.416010000     0.000000000  0.000000000  0.134843400

  length of vectors
     5.330110000  5.321210000  7.416010000     0.187613389  0.187927182  0.134843400


 FORCES acting on ions
    electron-ion (+dipol)            ewald-force                    non-local-force                 convergence-correction
 -----------------------------------------------------------------------------------------------
   0.504E+02 -.144E+02 0.394E+00   -.506E+02 0.144E+02 -.374E+00   0.159E+00 0.523E-01 -.355E-01   -.110E-05 -.860E-06 0.361E-06
   0.504E+02 0.144E+02 -.394E+00   -.506E+02 -.144E+02 0.374E+00   0.159E+00 -.523E-01 0.355E-01   -.110E-05 0.860E-06 -.361E-06
   -.504E+02 0.144E+02 -.394E+00   0.506E+02 -.144E+02 0.374E+00   -.159E+00 -.523E-01 0.355E-01   0.110E-05 0.860E-06 -.361E-06
   -.504E+02 -.144E+02 0.394E+00   0.506E+02 0.144E+02 -.374E+00   -.159E+00 0.523E-01 -.355E-01   0.110E-05 -.860E-06 0.361E-06
   -.139E-13 0.658E-12 -.755E-13   0.191E-13 -.123E-12 -.711E-13   0.000E+00 0.000E+00 0.000E+00   -.289E-13 -.490E-13 -.520E-13
   0.159E-11 -.397E-11 0.446E-11   -.686E-13 -.604E-13 0.128E-12   0.000E+00 0.000E+00 0.000E+00   -.303E-13 -.847E-14 0.940E-14
   -.872E-13 0.654E-12 0.208E-11   -.180E-13 -.178E-13 -.128E-12   0.000E+00 0.000E+00 0.000E+00   -.561E-14 0.674E-13 -.137E-13
   0.250E-12 0.133E-11 -.932E-11   -.475E-13 -.728E-13 0.171E-12   0.000E+00 0.000E+00 0.000E+00   -.376E-13 0.756E-13 -.868E-13
   0.116E+02 0.719E+02 -.315E+02   -.104E+02 -.768E+02 0.350E+02   -.203E+01 0.403E+01 -.349E+01   -.394E-04 -.393E-04 0.373E-06
   0.116E+02 -.719E+02 0.315E+02   -.104E+02 0.768E+02 -.350E+02   -.203E+01 -.403E+01 0.349E+01   -.394E-04 0.393E-04 -.373E-06
   -.116E+02 -.719E+02 0.315E+02   0.104E+02 0.768E+02 -.350E+02   0.203E+01 -.403E+01 0.349E+01   0.394E-04 0.393E-04 -.373E-06
   -.116E+02 0.719E+02 -.315E+02   0.104E+02 -.768E+02 0.350E+02   0.203E+01 0.403E+01 -.349E+01   0.394E-04 -.393E-04 0.373E-06
   -.696E+02 -.635E+01 0.332E+02   0.741E+02 0.489E+01 -.370E+02   -.364E+01 0.222E+01 0.370E+01   0.404E-04 0.370E-04 -.181E-05
   -.696E+02 0.635E+01 -.332E+02   0.741E+02 -.489E+01 0.370E+02   -.364E+01 -.222E+01 -.370E+01   0.404E-04 -.370E-04 0.181E-05
   0.696E+02 0.635E+01 -.332E+02   -.741E+02 -.489E+01 0.370E+02   0.364E+01 -.222E+01 -.370E+01   -.404E-04 -.370E-04 0.181E-05
   0.696E+02 -.635E+01 0.332E+02   -.741E+02 0.489E+01 -.370E+02   0.364E+01 0.222E+01 0.370E+01   -.404E-04 0.370E-04 -.181E-05
   -.139E+02 0.627E+02 0.585E+02   0.151E+02 -.682E+02 -.611E+02   -.123E+01 0.545E+01 0.126E+01   0.802E-06 -.539E-06 -.571E-04
   -.139E+02 -.627E+02 -.585E+02   0.151E+02 0.682E+02 0.611E+02   -.123E+01 -.545E+01 -.126E+01   0.802E-06 0.539E-06 0.571E-04
   0.139E+02 -.627E+02 -.585E+02   -.151E+02 0.682E+02 0.611E+02   0.123E+01 -.545E+01 -.126E+01   -.802E-06 0.539E-06 0.571E-04
   0.139E+02 0.627E+02 0.585E+02   -.151E+02 -.682E+02 -.611E+02   0.123E+01 0.545E+01 0.126E+01   -.802E-06 -.539E-06 -.571E-04
 -----------------------------------------------------------------------------------------------
   0.458E-11 0.800E-11 -.199E-12   -.213E-13 -.114E-12 0.497E-13   0.000E+00 0.888E-15 -.444E-15   -.250E-12 0.101E-12 -.594E-13


 POSITION                                       TOTAL-FORCE (eV/Angst)
 -----------------------------------------------------------------------------------
      0.23117      5.28481      1.85400         0.002769     -0.024918     -0.015195
      2.89622      2.69700      1.85400         0.002769      0.024918      0.015195
      5.09894      0.03640      5.56201        -0.002769      0.024918      0.015195
      2.43389      2.62421      5.56201        -0.002769     -0.024918     -0.015195
      0.00000      2.66060      0.00000         0.000000     -0.000000      0.000000
      2.66506      0.00000      3.70800         0.000000     -0.000000      0.000000
      0.00000      2.66060      3.70800         0.000000     -0.000000      0.000000
      2.66506      0.00000      0.00000         0.000000     -0.000000      0.000000
      1.59120      3.80951      0.28151        -0.837842     -0.819002      0.048750
      4.25625      4.17231      3.42649        -0.837842      0.819002     -0.048750
      3.73891      1.51170      7.13450         0.837842      0.819002     -0.048750
      1.07386      1.14890      3.98952         0.837842     -0.819002      0.048750
      1.50890      3.72735      3.42649         0.897748      0.757638     -0.051961
      4.17396      4.25447      0.28151         0.897748     -0.757638      0.051961
      3.82121      1.59386      3.98952        -0.897748     -0.757638      0.051961
      1.15615      1.06674      7.13450        -0.897748      0.757638     -0.051961
      5.27793      2.27498      1.91125        -0.022749     -0.052277     -1.353177
      2.61287      0.38563      1.79675        -0.022749      0.052277      1.353177
      0.05218      3.04623      5.50476         0.022749      0.052277      1.353177
      2.71724      4.93558      5.61926         0.022749     -0.052277     -1.353177
 -----------------------------------------------------------------------------------
    total drift:                                0.000000      0.000000     -0.000000


--------------------------------------------------------------------------------------------------------



  FREE ENERGIE OF THE ION-ELECTRON SYSTEM (eV)
  ---------------------------------------------------
  free  energy   TOTEN  =      -145.10132675 eV

  energy  without entropy=     -145.10132675  energy(sigma->0) =     -145.10132675



--------------------------------------------------------------------------------------------------------


    POTLOK:  cpu time    0.0914: real time    0.0914


--------------------------------------------------------------------------------------------------------


 writing wavefunctions
     LOOP+:  cpu time  452.4274: real time  452.6023
    4ORBIT:  cpu time    0.0000: real time    0.0324
 BZINTS: Fermi energy:  4.631379;168.000000 electrons
         Band energy:***********;  BLOECHL correction: -0.025620

 total amount of memory used by VASP MPI-rank0   699292. kBytes
=======================================================================

   base      :      30000. kBytes
   nonl-proj :     110706. kBytes
   fftplans  :       7479. kBytes
   grid      :      13770. kBytes
   one-center:        155. kBytes
   wavefun   :     537182. kBytes

  
  
 General timing and accounting informations for this job:
 ========================================================
  
                  Total CPU time used (sec):      458.058
                            User time (sec):      455.870
                          System time (sec):        2.188
                         Elapsed time (sec):      458.308
  
                   Maximum memory used (kb):      707632.
                   Average memory used (kb):           0.
  
                          Minor page faults:       201890
                          Major page faults:          116
                 Voluntary context switches:          266
