 vasp.5.4.4.18Apr17-6-g9f103f2a35 (build May  5 2021 09:15:07) complex           
 executed on             LinuxIFC date 2021.06.24  14:06:08
 running on    8 total cores
 distrk:  each k-point on    8 cores,    1 groups
 distr:  one band on NCORES_PER_BAND=   4 cores,    2 groups


--------------------------------------------------------------------------------------------------------


 INCAR:
 POTCAR:    PAW_PBE Ca_sv 06Sep2000               
 POTCAR:    PAW_PBE Fe_pv 02Aug2007               
 POTCAR:    PAW_PBE O 08Apr2002                   
 POTCAR:    PAW_PBE Ca_sv 06Sep2000               
   VRHFIN =Ca: 3s3p4s                                                           
   LEXCH  = PE                                                                  
   EATOM  =  1006.0909 eV,   73.9456 Ry                                         
                                                                                
   TITEL  = PAW_PBE Ca_sv 06Sep2000                                             
   LULTRA =        F    use ultrasoft PP ?                                      
   IUNSCR =        1    unscreen: 0-lin 1-nonlin 2-no                           
   RPACOR =    2.000    partial core radius                                     
   POMASS =   40.078; ZVAL   =   10.000    mass and valenz                      
   RCORE  =    2.300    outmost cutoff radius                                   
   RWIGS  =    2.500; RWIGS  =    1.323    wigner-seitz radius (au A)           
   ENMAX  =  266.622; ENMIN  =  199.967 eV                                      
   RCLOC  =    1.808    cutoff for local pot                                    
   LCOR   =        T    correct aug charges                                     
   LPAW   =        T    paw PP                                                  
   EAUG   =  420.852                                                            
   RMAX   =    2.359    core radius for proj-oper                               
   RAUG   =    1.300    factor for augmentation sphere                          
   RDEP   =    2.392    radius for radial grids                                 
   RDEPT  =    1.987    core radius for aug-charge                              
                                                                                
   Atomic configuration                                                         
    7 entries                                                                   
     n  l   j            E        occ.                                          
     1  0  0.50     -3949.1705   2.0000                                         
     2  0  0.50      -414.3434   2.0000                                         
     2  1  1.50      -334.7047   6.0000                                         
     3  0  0.50       -47.0896   2.0000                                         
     4  0  0.50        -3.7663   2.0000                                         
     3  1  1.50       -28.0061   6.0000                                         
     3  2  1.50        -4.0817   0.0000                                         
   Description                                                                  
     l       E           TYP  RCUT    TYP  RCUT                                 
     0    -47.0896403     23  2.300                                             
     0     -3.7663320     23  2.300                                             
     1    -28.0060855     23  2.300                                             
     1      6.8029130     23  2.300                                             
     2     -4.0817478     23  2.300                                             
     2      0.4464412     23  2.300                                             
  local pseudopotential read in
  partial core-charges read in
  partial kinetic energy density read in
  atomic valenz-charges read in
  non local Contribution for L=           0  read in
    real space projection operators read in
  non local Contribution for L=           0  read in
    real space projection operators read in
  non local Contribution for L=           1  read in
    real space projection operators read in
  non local Contribution for L=           1  read in
    real space projection operators read in
  non local Contribution for L=           2  read in
    real space projection operators read in
  non local Contribution for L=           2  read in
    real space projection operators read in
    PAW grid and wavefunctions read in

   number of l-projection  operators is LMAX  =           6
   number of lm-projection operators is LMMAX =          18

 POTCAR:    PAW_PBE Fe_pv 02Aug2007               
   VRHFIN =Fe:  3pd7s1                                                          
   LEXCH  = PE                                                                  
   EATOM  =  2457.4239 eV,  180.6156 Ry                                         
                                                                                
   TITEL  = PAW_PBE Fe_pv 02Aug2007                                             
   LULTRA =        F    use ultrasoft PP ?                                      
   IUNSCR =        1    unscreen: 0-lin 1-nonlin 2-no                           
   RPACOR =    1.750    partial core radius                                     
   POMASS =   55.847; ZVAL   =   14.000    mass and valenz                      
   RCORE  =    2.200    outmost cutoff radius                                   
   RWIGS  =    2.200; RWIGS  =    1.164    wigner-seitz radius (au A)           
   ENMAX  =  293.238; ENMIN  =  219.928 eV                                      
   ICORE  =        3    local potential                                         
   LCOR   =        T    correct aug charges                                     
   LPAW   =        T    paw PP                                                  
   EAUG   =  578.342                                                            
   DEXC   =    0.000                                                            
   RMAX   =    2.249    core radius for proj-oper                               
   RAUG   =    1.300    factor for augmentation sphere                          
   RDEP   =    2.296    radius for radial grids                                 
   RDEPT  =    1.766    core radius for aug-charge                              
                                                                                
   Atomic configuration                                                         
    8 entries                                                                   
     n  l   j            E        occ.                                          
     1  0  0.50     -6993.8440   2.0000                                         
     2  0  0.50      -814.6047   2.0000                                         
     2  1  1.50      -693.3689   6.0000                                         
     3  0  0.50       -89.4732   2.0000                                         
     3  1  1.50       -55.6373   6.0000                                         
     3  2  2.50        -3.8151   7.0000                                         
     4  0  0.50        -4.2551   1.0000                                         
     4  3  2.50        -1.3606   0.0000                                         
   Description                                                                  
     l       E           TYP  RCUT    TYP  RCUT                                 
     1    -55.6372668     23  2.000                                             
     1     -5.4423304     23  2.000                                             
     2     -3.8151096     23  2.200                                             
     2     -5.1756922     23  2.200                                             
     0     -4.2550951     23  2.200                                             
     0     27.2116520     23  2.200                                             
     3     -1.3605826     23  2.200                                             
  local pseudopotential read in
  partial core-charges read in
  partial kinetic energy density read in
  atomic valenz-charges read in
  non local Contribution for L=           1  read in
    real space projection operators read in
  non local Contribution for L=           1  read in
    real space projection operators read in
  non local Contribution for L=           2  read in
    real space projection operators read in
  non local Contribution for L=           2  read in
    real space projection operators read in
  non local Contribution for L=           0  read in
    real space projection operators read in
  non local Contribution for L=           0  read in
    real space projection operators read in
    PAW grid and wavefunctions read in

   number of l-projection  operators is LMAX  =           6
   number of lm-projection operators is LMMAX =          18

 POTCAR:    PAW_PBE O 08Apr2002                   
   VRHFIN =O: s2p4                                                              
   LEXCH  = PE                                                                  
   EATOM  =   432.3788 eV,   31.7789 Ry                                         
                                                                                
   TITEL  = PAW_PBE O 08Apr2002                                                 
   LULTRA =        F    use ultrasoft PP ?                                      
   IUNSCR =        1    unscreen: 0-lin 1-nonlin 2-no                           
   RPACOR =    1.200    partial core radius                                     
   POMASS =   16.000; ZVAL   =    6.000    mass and valenz                      
   RCORE  =    1.520    outmost cutoff radius                                   
   RWIGS  =    1.550; RWIGS  =    0.820    wigner-seitz radius (au A)           
   ENMAX  =  400.000; ENMIN  =  300.000 eV                                      
   ICORE  =        2    local potential                                         
   LCOR   =        T    correct aug charges                                     
   LPAW   =        T    paw PP                                                  
   EAUG   =  605.392                                                            
   DEXC   =    0.000                                                            
   RMAX   =    1.553    core radius for proj-oper                               
   RAUG   =    1.300    factor for augmentation sphere                          
   RDEP   =    1.550    radius for radial grids                                 
   RDEPT  =    1.329    core radius for aug-charge                              
                                                                                
   Atomic configuration                                                         
    4 entries                                                                   
     n  l   j            E        occ.                                          
     1  0  0.50      -514.6923   2.0000                                         
     2  0  0.50       -23.9615   2.0000                                         
     2  1  0.50        -9.0305   4.0000                                         
     3  2  1.50        -9.5241   0.0000                                         
   Description                                                                  
     l       E           TYP  RCUT    TYP  RCUT                                 
     0    -23.9615318     23  1.200                                             
     0     -9.5240782     23  1.200                                             
     1     -9.0304911     23  1.520                                             
     1      8.1634956     23  1.520                                             
     2     -9.5240782      7  1.500                                             
  local pseudopotential read in
  partial core-charges read in
  partial kinetic energy density read in
  kinetic energy density of atom read in
  atomic valenz-charges read in
  non local Contribution for L=           0  read in
    real space projection operators read in
  non local Contribution for L=           0  read in
    real space projection operators read in
  non local Contribution for L=           1  read in
    real space projection operators read in
  non local Contribution for L=           1  read in
    real space projection operators read in
    PAW grid and wavefunctions read in

   number of l-projection  operators is LMAX  =           4
   number of lm-projection operators is LMMAX =           8


 ----------------------------------------------------------------------------- 
|                                                                             |
|  ADVICE TO THIS USER RUNNING 'VASP/VAMP'   (HEAR YOUR MASTER'S VOICE ...):  |
|                                                                             |
|      You have a (more or less) 'large supercell' and for larger cells       |
|      it might be more efficient to use real space projection opertators     |
|      So try LREAL= Auto  in the INCAR   file.                               |
|      Mind:          For very  accurate calculation you might also keep the  |
|      reciprocal projection scheme          (i.e. LREAL=.FALSE.)             |
|                                                                             |
 ----------------------------------------------------------------------------- 


 ----------------------------------------------------------------------------- 
|                                                                             |
|  ADVICE TO THIS USER RUNNING 'VASP/VAMP'   (HEAR YOUR MASTER'S VOICE ...):  |
|                                                                             |
|      You enforced a specific xc-type in the INCAR file,                     |
|      a different type was found on the POTCAR file                          |
|          I HOPE YOU KNOW, WHAT YOU ARE  DOING                               |
|                                                                             |
 ----------------------------------------------------------------------------- 

  PAW_PBE Ca_sv 06Sep2000               :
 energy of atom  1       EATOM=-1006.0909
 kinetic energy error for atom=    0.0012 (will be added to EATOM!!)
  PAW_PBE Fe_pv 02Aug2007               :
 energy of atom  2       EATOM=-2457.4239
 kinetic energy error for atom=    0.0055 (will be added to EATOM!!)
  PAW_PBE O 08Apr2002                   :
 energy of atom  3       EATOM= -432.3788
 kinetic energy error for atom=    0.0168 (will be added to EATOM!!)


 POSCAR: Ca Fe  O                                
  positions in cartesian coordinates
  No initial velocities read in
 exchange correlation table for  LEXCH =       14
   RHO(1)=    0.500       N(1)  =     2000
   RHO(2)=  100.500       N(2)  =     4000



--------------------------------------------------------------------------------------------------------


 ion  position               nearest neighbor table
   1  0.043  0.993  0.250-  10 2.33  17 2.33  14 2.34  18 2.42   9 2.55  13 2.56
   2  0.543  0.507  0.250-   9 2.33  18 2.33  13 2.34  17 2.42  10 2.55  14 2.56
   3  0.957  0.007  0.750-  12 2.33  19 2.33  16 2.34  20 2.42  11 2.55  15 2.56
   4  0.457  0.493  0.750-  11 2.33  20 2.33  15 2.34  19 2.42  12 2.55  16 2.56
   5  0.000  0.500  0.000-  17 1.95  19 1.95   9 1.98  11 1.98  14 1.99  16 1.99
   6  0.500  0.000  0.500-  18 1.95  20 1.95  10 1.98  12 1.98  13 1.99  15 1.99
   7  0.000  0.500  0.500-  17 1.84  19 1.84  13 1.87  15 1.87  10 1.88  12 1.88
   8  0.500  0.000  0.000-  18 1.84  20 1.84  14 1.87  16 1.87   9 1.88  11 1.88
   9  0.299  0.716  0.038-   8 1.88   5 1.98   2 2.33   1 2.55
  10  0.799  0.784  0.462-   7 1.88   6 1.98   1 2.33   2 2.55
  11  0.701  0.284  0.962-   8 1.88   5 1.98   4 2.33   3 2.55
  12  0.201  0.216  0.538-   7 1.88   6 1.98   3 2.33   4 2.55
  13  0.283  0.700  0.462-   7 1.87   6 1.99   2 2.34   1 2.56
  14  0.783  0.800  0.038-   8 1.87   5 1.99   1 2.34   2 2.56
  15  0.717  0.300  0.538-   7 1.87   6 1.99   4 2.34   3 2.56
  16  0.217  0.200  0.962-   8 1.87   5 1.99   3 2.34   4 2.56
  17  0.990  0.428  0.258-   7 1.84   5 1.95   1 2.33   2 2.42
  18  0.490  0.072  0.242-   8 1.84   6 1.95   2 2.33   1 2.42
  19  0.010  0.572  0.742-   7 1.84   5 1.95   3 2.33   4 2.42
  20  0.510  0.928  0.758-   8 1.84   6 1.95   4 2.33   3 2.42


IMPORTANT INFORMATION: All symmetrisations will be switched off!
NOSYMM: (Re-)initialisation of all symmetry stuff for point group C_1.



 KPOINTS: KPOINTS created by Atomic Simulation Env

Automatic generation of k-mesh.
Space group operators:
 irot       det(A)        alpha          n_x          n_y          n_z        tau_x        tau_y        tau_z
    1     1.000000     0.000000     1.000000     0.000000     0.000000     0.000000     0.000000     0.000000
 
 Subroutine IBZKPT returns following result:
 ===========================================
 
 Found    245 irreducible k-points:
 
 Following reciprocal coordinates:
            Coordinates               Weight
  0.000000  0.000000  0.000000      1.000000
  0.142857  0.000000  0.000000      1.000000
  0.285714  0.000000  0.000000      1.000000
  0.428571  0.000000  0.000000      1.000000
 -0.428571  0.000000  0.000000      1.000000
 -0.285714  0.000000  0.000000      1.000000
 -0.142857  0.000000  0.000000      1.000000
  0.000000  0.142857  0.000000      1.000000
  0.142857  0.142857  0.000000      1.000000
  0.285714  0.142857  0.000000      1.000000
  0.428571  0.142857  0.000000      1.000000
 -0.428571  0.142857  0.000000      1.000000
 -0.285714  0.142857  0.000000      1.000000
 -0.142857  0.142857  0.000000      1.000000
  0.000000  0.285714  0.000000      1.000000
  0.142857  0.285714  0.000000      1.000000
  0.285714  0.285714  0.000000      1.000000
  0.428571  0.285714  0.000000      1.000000
 -0.428571  0.285714  0.000000      1.000000
 -0.285714  0.285714  0.000000      1.000000
 -0.142857  0.285714  0.000000      1.000000
  0.000000  0.428571  0.000000      1.000000
  0.142857  0.428571  0.000000      1.000000
  0.285714  0.428571  0.000000      1.000000
  0.428571  0.428571  0.000000      1.000000
 -0.428571  0.428571  0.000000      1.000000
 -0.285714  0.428571  0.000000      1.000000
 -0.142857  0.428571  0.000000      1.000000
  0.000000 -0.428571  0.000000      1.000000
  0.142857 -0.428571  0.000000      1.000000
  0.285714 -0.428571  0.000000      1.000000
  0.428571 -0.428571  0.000000      1.000000
 -0.428571 -0.428571  0.000000      1.000000
 -0.285714 -0.428571  0.000000      1.000000
 -0.142857 -0.428571  0.000000      1.000000
  0.000000 -0.285714  0.000000      1.000000
  0.142857 -0.285714  0.000000      1.000000
  0.285714 -0.285714  0.000000      1.000000
  0.428571 -0.285714  0.000000      1.000000
 -0.428571 -0.285714  0.000000      1.000000
 -0.285714 -0.285714  0.000000      1.000000
 -0.142857 -0.285714  0.000000      1.000000
  0.000000 -0.142857  0.000000      1.000000
  0.142857 -0.142857  0.000000      1.000000
  0.285714 -0.142857  0.000000      1.000000
  0.428571 -0.142857  0.000000      1.000000
 -0.428571 -0.142857  0.000000      1.000000
 -0.285714 -0.142857  0.000000      1.000000
 -0.142857 -0.142857  0.000000      1.000000
  0.000000  0.000000  0.200000      1.000000
  0.142857  0.000000  0.200000      1.000000
  0.285714  0.000000  0.200000      1.000000
  0.428571  0.000000  0.200000      1.000000
 -0.428571  0.000000  0.200000      1.000000
 -0.285714  0.000000  0.200000      1.000000
 -0.142857  0.000000  0.200000      1.000000
  0.000000  0.142857  0.200000      1.000000
  0.142857  0.142857  0.200000      1.000000
  0.285714  0.142857  0.200000      1.000000
  0.428571  0.142857  0.200000      1.000000
 -0.428571  0.142857  0.200000      1.000000
 -0.285714  0.142857  0.200000      1.000000
 -0.142857  0.142857  0.200000      1.000000
  0.000000  0.285714  0.200000      1.000000
  0.142857  0.285714  0.200000      1.000000
  0.285714  0.285714  0.200000      1.000000
  0.428571  0.285714  0.200000      1.000000
 -0.428571  0.285714  0.200000      1.000000
 -0.285714  0.285714  0.200000      1.000000
 -0.142857  0.285714  0.200000      1.000000
  0.000000  0.428571  0.200000      1.000000
  0.142857  0.428571  0.200000      1.000000
  0.285714  0.428571  0.200000      1.000000
  0.428571  0.428571  0.200000      1.000000
 -0.428571  0.428571  0.200000      1.000000
 -0.285714  0.428571  0.200000      1.000000
 -0.142857  0.428571  0.200000      1.000000
  0.000000 -0.428571  0.200000      1.000000
  0.142857 -0.428571  0.200000      1.000000
  0.285714 -0.428571  0.200000      1.000000
  0.428571 -0.428571  0.200000      1.000000
 -0.428571 -0.428571  0.200000      1.000000
 -0.285714 -0.428571  0.200000      1.000000
 -0.142857 -0.428571  0.200000      1.000000
  0.000000 -0.285714  0.200000      1.000000
  0.142857 -0.285714  0.200000      1.000000
  0.285714 -0.285714  0.200000      1.000000
  0.428571 -0.285714  0.200000      1.000000
 -0.428571 -0.285714  0.200000      1.000000
 -0.285714 -0.285714  0.200000      1.000000
 -0.142857 -0.285714  0.200000      1.000000
  0.000000 -0.142857  0.200000      1.000000
  0.142857 -0.142857  0.200000      1.000000
  0.285714 -0.142857  0.200000      1.000000
  0.428571 -0.142857  0.200000      1.000000
 -0.428571 -0.142857  0.200000      1.000000
 -0.285714 -0.142857  0.200000      1.000000
 -0.142857 -0.142857  0.200000      1.000000
  0.000000  0.000000  0.400000      1.000000
  0.142857  0.000000  0.400000      1.000000
  0.285714  0.000000  0.400000      1.000000
  0.428571  0.000000  0.400000      1.000000
 -0.428571  0.000000  0.400000      1.000000
 -0.285714  0.000000  0.400000      1.000000
 -0.142857  0.000000  0.400000      1.000000
  0.000000  0.142857  0.400000      1.000000
  0.142857  0.142857  0.400000      1.000000
  0.285714  0.142857  0.400000      1.000000
  0.428571  0.142857  0.400000      1.000000
 -0.428571  0.142857  0.400000      1.000000
 -0.285714  0.142857  0.400000      1.000000
 -0.142857  0.142857  0.400000      1.000000
  0.000000  0.285714  0.400000      1.000000
  0.142857  0.285714  0.400000      1.000000
  0.285714  0.285714  0.400000      1.000000
  0.428571  0.285714  0.400000      1.000000
 -0.428571  0.285714  0.400000      1.000000
 -0.285714  0.285714  0.400000      1.000000
 -0.142857  0.285714  0.400000      1.000000
  0.000000  0.428571  0.400000      1.000000
  0.142857  0.428571  0.400000      1.000000
  0.285714  0.428571  0.400000      1.000000
  0.428571  0.428571  0.400000      1.000000
 -0.428571  0.428571  0.400000      1.000000
 -0.285714  0.428571  0.400000      1.000000
 -0.142857  0.428571  0.400000      1.000000
  0.000000 -0.428571  0.400000      1.000000
  0.142857 -0.428571  0.400000      1.000000
  0.285714 -0.428571  0.400000      1.000000
  0.428571 -0.428571  0.400000      1.000000
 -0.428571 -0.428571  0.400000      1.000000
 -0.285714 -0.428571  0.400000      1.000000
 -0.142857 -0.428571  0.400000      1.000000
  0.000000 -0.285714  0.400000      1.000000
  0.142857 -0.285714  0.400000      1.000000
  0.285714 -0.285714  0.400000      1.000000
  0.428571 -0.285714  0.400000      1.000000
 -0.428571 -0.285714  0.400000      1.000000
 -0.285714 -0.285714  0.400000      1.000000
 -0.142857 -0.285714  0.400000      1.000000
  0.000000 -0.142857  0.400000      1.000000
  0.142857 -0.142857  0.400000      1.000000
  0.285714 -0.142857  0.400000      1.000000
  0.428571 -0.142857  0.400000      1.000000
 -0.428571 -0.142857  0.400000      1.000000
 -0.285714 -0.142857  0.400000      1.000000
 -0.142857 -0.142857  0.400000      1.000000
  0.000000  0.000000 -0.400000      1.000000
  0.142857  0.000000 -0.400000      1.000000
  0.285714  0.000000 -0.400000      1.000000
  0.428571  0.000000 -0.400000      1.000000
 -0.428571  0.000000 -0.400000      1.000000
 -0.285714  0.000000 -0.400000      1.000000
 -0.142857  0.000000 -0.400000      1.000000
  0.000000  0.142857 -0.400000      1.000000
  0.142857  0.142857 -0.400000      1.000000
  0.285714  0.142857 -0.400000      1.000000
  0.428571  0.142857 -0.400000      1.000000
 -0.428571  0.142857 -0.400000      1.000000
 -0.285714  0.142857 -0.400000      1.000000
 -0.142857  0.142857 -0.400000      1.000000
  0.000000  0.285714 -0.400000      1.000000
  0.142857  0.285714 -0.400000      1.000000
  0.285714  0.285714 -0.400000      1.000000
  0.428571  0.285714 -0.400000      1.000000
 -0.428571  0.285714 -0.400000      1.000000
 -0.285714  0.285714 -0.400000      1.000000
 -0.142857  0.285714 -0.400000      1.000000
  0.000000  0.428571 -0.400000      1.000000
  0.142857  0.428571 -0.400000      1.000000
  0.285714  0.428571 -0.400000      1.000000
  0.428571  0.428571 -0.400000      1.000000
 -0.428571  0.428571 -0.400000      1.000000
 -0.285714  0.428571 -0.400000      1.000000
 -0.142857  0.428571 -0.400000      1.000000
  0.000000 -0.428571 -0.400000      1.000000
  0.142857 -0.428571 -0.400000      1.000000
  0.285714 -0.428571 -0.400000      1.000000
  0.428571 -0.428571 -0.400000      1.000000
 -0.428571 -0.428571 -0.400000      1.000000
 -0.285714 -0.428571 -0.400000      1.000000
 -0.142857 -0.428571 -0.400000      1.000000
  0.000000 -0.285714 -0.400000      1.000000
  0.142857 -0.285714 -0.400000      1.000000
  0.285714 -0.285714 -0.400000      1.000000
  0.428571 -0.285714 -0.400000      1.000000
 -0.428571 -0.285714 -0.400000      1.000000
 -0.285714 -0.285714 -0.400000      1.000000
 -0.142857 -0.285714 -0.400000      1.000000
  0.000000 -0.142857 -0.400000      1.000000
  0.142857 -0.142857 -0.400000      1.000000
  0.285714 -0.142857 -0.400000      1.000000
  0.428571 -0.142857 -0.400000      1.000000
 -0.428571 -0.142857 -0.400000      1.000000
 -0.285714 -0.142857 -0.400000      1.000000
 -0.142857 -0.142857 -0.400000      1.000000
  0.000000  0.000000 -0.200000      1.000000
  0.142857  0.000000 -0.200000      1.000000
  0.285714  0.000000 -0.200000      1.000000
  0.428571  0.000000 -0.200000      1.000000
 -0.428571  0.000000 -0.200000      1.000000
 -0.285714  0.000000 -0.200000      1.000000
 -0.142857  0.000000 -0.200000      1.000000
  0.000000  0.142857 -0.200000      1.000000
  0.142857  0.142857 -0.200000      1.000000
  0.285714  0.142857 -0.200000      1.000000
  0.428571  0.142857 -0.200000      1.000000
 -0.428571  0.142857 -0.200000      1.000000
 -0.285714  0.142857 -0.200000      1.000000
 -0.142857  0.142857 -0.200000      1.000000
  0.000000  0.285714 -0.200000      1.000000
  0.142857  0.285714 -0.200000      1.000000
  0.285714  0.285714 -0.200000      1.000000
  0.428571  0.285714 -0.200000      1.000000
 -0.428571  0.285714 -0.200000      1.000000
 -0.285714  0.285714 -0.200000      1.000000
 -0.142857  0.285714 -0.200000      1.000000
  0.000000  0.428571 -0.200000      1.000000
  0.142857  0.428571 -0.200000      1.000000
  0.285714  0.428571 -0.200000      1.000000
  0.428571  0.428571 -0.200000      1.000000
 -0.428571  0.428571 -0.200000      1.000000
 -0.285714  0.428571 -0.200000      1.000000
 -0.142857  0.428571 -0.200000      1.000000
  0.000000 -0.428571 -0.200000      1.000000
  0.142857 -0.428571 -0.200000      1.000000
  0.285714 -0.428571 -0.200000      1.000000
  0.428571 -0.428571 -0.200000      1.000000
 -0.428571 -0.428571 -0.200000      1.000000
 -0.285714 -0.428571 -0.200000      1.000000
 -0.142857 -0.428571 -0.200000      1.000000
  0.000000 -0.285714 -0.200000      1.000000
  0.142857 -0.285714 -0.200000      1.000000
  0.285714 -0.285714 -0.200000      1.000000
  0.428571 -0.285714 -0.200000      1.000000
 -0.428571 -0.285714 -0.200000      1.000000
 -0.285714 -0.285714 -0.200000      1.000000
 -0.142857 -0.285714 -0.200000      1.000000
  0.000000 -0.142857 -0.200000      1.000000
  0.142857 -0.142857 -0.200000      1.000000
  0.285714 -0.142857 -0.200000      1.000000
  0.428571 -0.142857 -0.200000      1.000000
 -0.428571 -0.142857 -0.200000      1.000000
 -0.285714 -0.142857 -0.200000      1.000000
 -0.142857 -0.142857 -0.200000      1.000000
 
 Following cartesian coordinates:
            Coordinates               Weight
  0.000000  0.000000  0.000000      1.000000
  0.026802  0.000000  0.000000      1.000000
  0.053604  0.000000  0.000000      1.000000
  0.080406  0.000000  0.000000      1.000000
 -0.080406  0.000000  0.000000      1.000000
 -0.053604  0.000000  0.000000      1.000000
 -0.026802  0.000000  0.000000      1.000000
  0.000000  0.026847  0.000000      1.000000
  0.026802  0.026847  0.000000      1.000000
  0.053604  0.026847  0.000000      1.000000
  0.080406  0.026847  0.000000      1.000000
 -0.080406  0.026847  0.000000      1.000000
 -0.053604  0.026847  0.000000      1.000000
 -0.026802  0.026847  0.000000      1.000000
  0.000000  0.053693  0.000000      1.000000
  0.026802  0.053693  0.000000      1.000000
  0.053604  0.053693  0.000000      1.000000
  0.080406  0.053693  0.000000      1.000000
 -0.080406  0.053693  0.000000      1.000000
 -0.053604  0.053693  0.000000      1.000000
 -0.026802  0.053693  0.000000      1.000000
  0.000000  0.080540  0.000000      1.000000
  0.026802  0.080540  0.000000      1.000000
  0.053604  0.080540  0.000000      1.000000
  0.080406  0.080540  0.000000      1.000000
 -0.080406  0.080540  0.000000      1.000000
 -0.053604  0.080540  0.000000      1.000000
 -0.026802  0.080540  0.000000      1.000000
  0.000000 -0.080540  0.000000      1.000000
  0.026802 -0.080540  0.000000      1.000000
  0.053604 -0.080540  0.000000      1.000000
  0.080406 -0.080540  0.000000      1.000000
 -0.080406 -0.080540  0.000000      1.000000
 -0.053604 -0.080540  0.000000      1.000000
 -0.026802 -0.080540  0.000000      1.000000
  0.000000 -0.053693  0.000000      1.000000
  0.026802 -0.053693  0.000000      1.000000
  0.053604 -0.053693  0.000000      1.000000
  0.080406 -0.053693  0.000000      1.000000
 -0.080406 -0.053693  0.000000      1.000000
 -0.053604 -0.053693  0.000000      1.000000
 -0.026802 -0.053693  0.000000      1.000000
  0.000000 -0.026847  0.000000      1.000000
  0.026802 -0.026847  0.000000      1.000000
  0.053604 -0.026847  0.000000      1.000000
  0.080406 -0.026847  0.000000      1.000000
 -0.080406 -0.026847  0.000000      1.000000
 -0.053604 -0.026847  0.000000      1.000000
 -0.026802 -0.026847  0.000000      1.000000
  0.000000  0.000000  0.026969      1.000000
  0.026802  0.000000  0.026969      1.000000
  0.053604  0.000000  0.026969      1.000000
  0.080406  0.000000  0.026969      1.000000
 -0.080406  0.000000  0.026969      1.000000
 -0.053604  0.000000  0.026969      1.000000
 -0.026802  0.000000  0.026969      1.000000
  0.000000  0.026847  0.026969      1.000000
  0.026802  0.026847  0.026969      1.000000
  0.053604  0.026847  0.026969      1.000000
  0.080406  0.026847  0.026969      1.000000
 -0.080406  0.026847  0.026969      1.000000
 -0.053604  0.026847  0.026969      1.000000
 -0.026802  0.026847  0.026969      1.000000
  0.000000  0.053693  0.026969      1.000000
  0.026802  0.053693  0.026969      1.000000
  0.053604  0.053693  0.026969      1.000000
  0.080406  0.053693  0.026969      1.000000
 -0.080406  0.053693  0.026969      1.000000
 -0.053604  0.053693  0.026969      1.000000
 -0.026802  0.053693  0.026969      1.000000
  0.000000  0.080540  0.026969      1.000000
  0.026802  0.080540  0.026969      1.000000
  0.053604  0.080540  0.026969      1.000000
  0.080406  0.080540  0.026969      1.000000
 -0.080406  0.080540  0.026969      1.000000
 -0.053604  0.080540  0.026969      1.000000
 -0.026802  0.080540  0.026969      1.000000
  0.000000 -0.080540  0.026969      1.000000
  0.026802 -0.080540  0.026969      1.000000
  0.053604 -0.080540  0.026969      1.000000
  0.080406 -0.080540  0.026969      1.000000
 -0.080406 -0.080540  0.026969      1.000000
 -0.053604 -0.080540  0.026969      1.000000
 -0.026802 -0.080540  0.026969      1.000000
  0.000000 -0.053693  0.026969      1.000000
  0.026802 -0.053693  0.026969      1.000000
  0.053604 -0.053693  0.026969      1.000000
  0.080406 -0.053693  0.026969      1.000000
 -0.080406 -0.053693  0.026969      1.000000
 -0.053604 -0.053693  0.026969      1.000000
 -0.026802 -0.053693  0.026969      1.000000
  0.000000 -0.026847  0.026969      1.000000
  0.026802 -0.026847  0.026969      1.000000
  0.053604 -0.026847  0.026969      1.000000
  0.080406 -0.026847  0.026969      1.000000
 -0.080406 -0.026847  0.026969      1.000000
 -0.053604 -0.026847  0.026969      1.000000
 -0.026802 -0.026847  0.026969      1.000000
  0.000000  0.000000  0.053937      1.000000
  0.026802  0.000000  0.053937      1.000000
  0.053604  0.000000  0.053937      1.000000
  0.080406  0.000000  0.053937      1.000000
 -0.080406  0.000000  0.053937      1.000000
 -0.053604  0.000000  0.053937      1.000000
 -0.026802  0.000000  0.053937      1.000000
  0.000000  0.026847  0.053937      1.000000
  0.026802  0.026847  0.053937      1.000000
  0.053604  0.026847  0.053937      1.000000
  0.080406  0.026847  0.053937      1.000000
 -0.080406  0.026847  0.053937      1.000000
 -0.053604  0.026847  0.053937      1.000000
 -0.026802  0.026847  0.053937      1.000000
  0.000000  0.053693  0.053937      1.000000
  0.026802  0.053693  0.053937      1.000000
  0.053604  0.053693  0.053937      1.000000
  0.080406  0.053693  0.053937      1.000000
 -0.080406  0.053693  0.053937      1.000000
 -0.053604  0.053693  0.053937      1.000000
 -0.026802  0.053693  0.053937      1.000000
  0.000000  0.080540  0.053937      1.000000
  0.026802  0.080540  0.053937      1.000000
  0.053604  0.080540  0.053937      1.000000
  0.080406  0.080540  0.053937      1.000000
 -0.080406  0.080540  0.053937      1.000000
 -0.053604  0.080540  0.053937      1.000000
 -0.026802  0.080540  0.053937      1.000000
  0.000000 -0.080540  0.053937      1.000000
  0.026802 -0.080540  0.053937      1.000000
  0.053604 -0.080540  0.053937      1.000000
  0.080406 -0.080540  0.053937      1.000000
 -0.080406 -0.080540  0.053937      1.000000
 -0.053604 -0.080540  0.053937      1.000000
 -0.026802 -0.080540  0.053937      1.000000
  0.000000 -0.053693  0.053937      1.000000
  0.026802 -0.053693  0.053937      1.000000
  0.053604 -0.053693  0.053937      1.000000
  0.080406 -0.053693  0.053937      1.000000
 -0.080406 -0.053693  0.053937      1.000000
 -0.053604 -0.053693  0.053937      1.000000
 -0.026802 -0.053693  0.053937      1.000000
  0.000000 -0.026847  0.053937      1.000000
  0.026802 -0.026847  0.053937      1.000000
  0.053604 -0.026847  0.053937      1.000000
  0.080406 -0.026847  0.053937      1.000000
 -0.080406 -0.026847  0.053937      1.000000
 -0.053604 -0.026847  0.053937      1.000000
 -0.026802 -0.026847  0.053937      1.000000
  0.000000  0.000000 -0.053937      1.000000
  0.026802  0.000000 -0.053937      1.000000
  0.053604  0.000000 -0.053937      1.000000
  0.080406  0.000000 -0.053937      1.000000
 -0.080406  0.000000 -0.053937      1.000000
 -0.053604  0.000000 -0.053937      1.000000
 -0.026802  0.000000 -0.053937      1.000000
  0.000000  0.026847 -0.053937      1.000000
  0.026802  0.026847 -0.053937      1.000000
  0.053604  0.026847 -0.053937      1.000000
  0.080406  0.026847 -0.053937      1.000000
 -0.080406  0.026847 -0.053937      1.000000
 -0.053604  0.026847 -0.053937      1.000000
 -0.026802  0.026847 -0.053937      1.000000
  0.000000  0.053693 -0.053937      1.000000
  0.026802  0.053693 -0.053937      1.000000
  0.053604  0.053693 -0.053937      1.000000
  0.080406  0.053693 -0.053937      1.000000
 -0.080406  0.053693 -0.053937      1.000000
 -0.053604  0.053693 -0.053937      1.000000
 -0.026802  0.053693 -0.053937      1.000000
  0.000000  0.080540 -0.053937      1.000000
  0.026802  0.080540 -0.053937      1.000000
  0.053604  0.080540 -0.053937      1.000000
  0.080406  0.080540 -0.053937      1.000000
 -0.080406  0.080540 -0.053937      1.000000
 -0.053604  0.080540 -0.053937      1.000000
 -0.026802  0.080540 -0.053937      1.000000
  0.000000 -0.080540 -0.053937      1.000000
  0.026802 -0.080540 -0.053937      1.000000
  0.053604 -0.080540 -0.053937      1.000000
  0.080406 -0.080540 -0.053937      1.000000
 -0.080406 -0.080540 -0.053937      1.000000
 -0.053604 -0.080540 -0.053937      1.000000
 -0.026802 -0.080540 -0.053937      1.000000
  0.000000 -0.053693 -0.053937      1.000000
  0.026802 -0.053693 -0.053937      1.000000
  0.053604 -0.053693 -0.053937      1.000000
  0.080406 -0.053693 -0.053937      1.000000
 -0.080406 -0.053693 -0.053937      1.000000
 -0.053604 -0.053693 -0.053937      1.000000
 -0.026802 -0.053693 -0.053937      1.000000
  0.000000 -0.026847 -0.053937      1.000000
  0.026802 -0.026847 -0.053937      1.000000
  0.053604 -0.026847 -0.053937      1.000000
  0.080406 -0.026847 -0.053937      1.000000
 -0.080406 -0.026847 -0.053937      1.000000
 -0.053604 -0.026847 -0.053937      1.000000
 -0.026802 -0.026847 -0.053937      1.000000
  0.000000  0.000000 -0.026969      1.000000
  0.026802  0.000000 -0.026969      1.000000
  0.053604  0.000000 -0.026969      1.000000
  0.080406  0.000000 -0.026969      1.000000
 -0.080406  0.000000 -0.026969      1.000000
 -0.053604  0.000000 -0.026969      1.000000
 -0.026802  0.000000 -0.026969      1.000000
  0.000000  0.026847 -0.026969      1.000000
  0.026802  0.026847 -0.026969      1.000000
  0.053604  0.026847 -0.026969      1.000000
  0.080406  0.026847 -0.026969      1.000000
 -0.080406  0.026847 -0.026969      1.000000
 -0.053604  0.026847 -0.026969      1.000000
 -0.026802  0.026847 -0.026969      1.000000
  0.000000  0.053693 -0.026969      1.000000
  0.026802  0.053693 -0.026969      1.000000
  0.053604  0.053693 -0.026969      1.000000
  0.080406  0.053693 -0.026969      1.000000
 -0.080406  0.053693 -0.026969      1.000000
 -0.053604  0.053693 -0.026969      1.000000
 -0.026802  0.053693 -0.026969      1.000000
  0.000000  0.080540 -0.026969      1.000000
  0.026802  0.080540 -0.026969      1.000000
  0.053604  0.080540 -0.026969      1.000000
  0.080406  0.080540 -0.026969      1.000000
 -0.080406  0.080540 -0.026969      1.000000
 -0.053604  0.080540 -0.026969      1.000000
 -0.026802  0.080540 -0.026969      1.000000
  0.000000 -0.080540 -0.026969      1.000000
  0.026802 -0.080540 -0.026969      1.000000
  0.053604 -0.080540 -0.026969      1.000000
  0.080406 -0.080540 -0.026969      1.000000
 -0.080406 -0.080540 -0.026969      1.000000
 -0.053604 -0.080540 -0.026969      1.000000
 -0.026802 -0.080540 -0.026969      1.000000
  0.000000 -0.053693 -0.026969      1.000000
  0.026802 -0.053693 -0.026969      1.000000
  0.053604 -0.053693 -0.026969      1.000000
  0.080406 -0.053693 -0.026969      1.000000
 -0.080406 -0.053693 -0.026969      1.000000
 -0.053604 -0.053693 -0.026969      1.000000
 -0.026802 -0.053693 -0.026969      1.000000
  0.000000 -0.026847 -0.026969      1.000000
  0.026802 -0.026847 -0.026969      1.000000
  0.053604 -0.026847 -0.026969      1.000000
  0.080406 -0.026847 -0.026969      1.000000
 -0.080406 -0.026847 -0.026969      1.000000
 -0.053604 -0.026847 -0.026969      1.000000
 -0.026802 -0.026847 -0.026969      1.000000
 
 TETIRR: Found   1470 inequivalent tetrahedra from     1470
 
 Subroutine IBZKPT_HF returns following result:
 ==============================================
 
 Found    245 k-points in 1st BZ
 the following    245 k-points will be used (e.g. in the exchange kernel)
 Following reciprocal coordinates:   # in IRBZ
  0.000000  0.000000  0.000000    0.00408163   1 t-inv F
  0.142857  0.000000  0.000000    0.00408163   2 t-inv F
  0.285714  0.000000  0.000000    0.00408163   3 t-inv F
  0.428571  0.000000  0.000000    0.00408163   4 t-inv F
 -0.428571  0.000000  0.000000    0.00408163   5 t-inv F
 -0.285714  0.000000  0.000000    0.00408163   6 t-inv F
 -0.142857  0.000000  0.000000    0.00408163   7 t-inv F
  0.000000  0.142857  0.000000    0.00408163   8 t-inv F
  0.142857  0.142857  0.000000    0.00408163   9 t-inv F
  0.285714  0.142857  0.000000    0.00408163  10 t-inv F
  0.428571  0.142857  0.000000    0.00408163  11 t-inv F
 -0.428571  0.142857  0.000000    0.00408163  12 t-inv F
 -0.285714  0.142857  0.000000    0.00408163  13 t-inv F
 -0.142857  0.142857  0.000000    0.00408163  14 t-inv F
  0.000000  0.285714  0.000000    0.00408163  15 t-inv F
  0.142857  0.285714  0.000000    0.00408163  16 t-inv F
  0.285714  0.285714  0.000000    0.00408163  17 t-inv F
  0.428571  0.285714  0.000000    0.00408163  18 t-inv F
 -0.428571  0.285714  0.000000    0.00408163  19 t-inv F
 -0.285714  0.285714  0.000000    0.00408163  20 t-inv F
 -0.142857  0.285714  0.000000    0.00408163  21 t-inv F
  0.000000  0.428571  0.000000    0.00408163  22 t-inv F
  0.142857  0.428571  0.000000    0.00408163  23 t-inv F
  0.285714  0.428571  0.000000    0.00408163  24 t-inv F
  0.428571  0.428571  0.000000    0.00408163  25 t-inv F
 -0.428571  0.428571  0.000000    0.00408163  26 t-inv F
 -0.285714  0.428571  0.000000    0.00408163  27 t-inv F
 -0.142857  0.428571  0.000000    0.00408163  28 t-inv F
  0.000000 -0.428571  0.000000    0.00408163  29 t-inv F
  0.142857 -0.428571  0.000000    0.00408163  30 t-inv F
  0.285714 -0.428571  0.000000    0.00408163  31 t-inv F
  0.428571 -0.428571  0.000000    0.00408163  32 t-inv F
 -0.428571 -0.428571  0.000000    0.00408163  33 t-inv F
 -0.285714 -0.428571  0.000000    0.00408163  34 t-inv F
 -0.142857 -0.428571  0.000000    0.00408163  35 t-inv F
  0.000000 -0.285714  0.000000    0.00408163  36 t-inv F
  0.142857 -0.285714  0.000000    0.00408163  37 t-inv F
  0.285714 -0.285714  0.000000    0.00408163  38 t-inv F
  0.428571 -0.285714  0.000000    0.00408163  39 t-inv F
 -0.428571 -0.285714  0.000000    0.00408163  40 t-inv F
 -0.285714 -0.285714  0.000000    0.00408163  41 t-inv F
 -0.142857 -0.285714  0.000000    0.00408163  42 t-inv F
  0.000000 -0.142857  0.000000    0.00408163  43 t-inv F
  0.142857 -0.142857  0.000000    0.00408163  44 t-inv F
  0.285714 -0.142857  0.000000    0.00408163  45 t-inv F
  0.428571 -0.142857  0.000000    0.00408163  46 t-inv F
 -0.428571 -0.142857  0.000000    0.00408163  47 t-inv F
 -0.285714 -0.142857  0.000000    0.00408163  48 t-inv F
 -0.142857 -0.142857  0.000000    0.00408163  49 t-inv F
  0.000000  0.000000  0.200000    0.00408163  50 t-inv F
  0.142857  0.000000  0.200000    0.00408163  51 t-inv F
  0.285714  0.000000  0.200000    0.00408163  52 t-inv F
  0.428571  0.000000  0.200000    0.00408163  53 t-inv F
 -0.428571  0.000000  0.200000    0.00408163  54 t-inv F
 -0.285714  0.000000  0.200000    0.00408163  55 t-inv F
 -0.142857  0.000000  0.200000    0.00408163  56 t-inv F
  0.000000  0.142857  0.200000    0.00408163  57 t-inv F
  0.142857  0.142857  0.200000    0.00408163  58 t-inv F
  0.285714  0.142857  0.200000    0.00408163  59 t-inv F
  0.428571  0.142857  0.200000    0.00408163  60 t-inv F
 -0.428571  0.142857  0.200000    0.00408163  61 t-inv F
 -0.285714  0.142857  0.200000    0.00408163  62 t-inv F
 -0.142857  0.142857  0.200000    0.00408163  63 t-inv F
  0.000000  0.285714  0.200000    0.00408163  64 t-inv F
  0.142857  0.285714  0.200000    0.00408163  65 t-inv F
  0.285714  0.285714  0.200000    0.00408163  66 t-inv F
  0.428571  0.285714  0.200000    0.00408163  67 t-inv F
 -0.428571  0.285714  0.200000    0.00408163  68 t-inv F
 -0.285714  0.285714  0.200000    0.00408163  69 t-inv F
 -0.142857  0.285714  0.200000    0.00408163  70 t-inv F
  0.000000  0.428571  0.200000    0.00408163  71 t-inv F
  0.142857  0.428571  0.200000    0.00408163  72 t-inv F
  0.285714  0.428571  0.200000    0.00408163  73 t-inv F
  0.428571  0.428571  0.200000    0.00408163  74 t-inv F
 -0.428571  0.428571  0.200000    0.00408163  75 t-inv F
 -0.285714  0.428571  0.200000    0.00408163  76 t-inv F
 -0.142857  0.428571  0.200000    0.00408163  77 t-inv F
  0.000000 -0.428571  0.200000    0.00408163  78 t-inv F
  0.142857 -0.428571  0.200000    0.00408163  79 t-inv F
  0.285714 -0.428571  0.200000    0.00408163  80 t-inv F
  0.428571 -0.428571  0.200000    0.00408163  81 t-inv F
 -0.428571 -0.428571  0.200000    0.00408163  82 t-inv F
 -0.285714 -0.428571  0.200000    0.00408163  83 t-inv F
 -0.142857 -0.428571  0.200000    0.00408163  84 t-inv F
  0.000000 -0.285714  0.200000    0.00408163  85 t-inv F
  0.142857 -0.285714  0.200000    0.00408163  86 t-inv F
  0.285714 -0.285714  0.200000    0.00408163  87 t-inv F
  0.428571 -0.285714  0.200000    0.00408163  88 t-inv F
 -0.428571 -0.285714  0.200000    0.00408163  89 t-inv F
 -0.285714 -0.285714  0.200000    0.00408163  90 t-inv F
 -0.142857 -0.285714  0.200000    0.00408163  91 t-inv F
  0.000000 -0.142857  0.200000    0.00408163  92 t-inv F
  0.142857 -0.142857  0.200000    0.00408163  93 t-inv F
  0.285714 -0.142857  0.200000    0.00408163  94 t-inv F
  0.428571 -0.142857  0.200000    0.00408163  95 t-inv F
 -0.428571 -0.142857  0.200000    0.00408163  96 t-inv F
 -0.285714 -0.142857  0.200000    0.00408163  97 t-inv F
 -0.142857 -0.142857  0.200000    0.00408163  98 t-inv F
  0.000000  0.000000  0.400000    0.00408163  99 t-inv F
  0.142857  0.000000  0.400000    0.00408163 100 t-inv F
  0.285714  0.000000  0.400000    0.00408163 101 t-inv F
  0.428571  0.000000  0.400000    0.00408163 102 t-inv F
 -0.428571  0.000000  0.400000    0.00408163 103 t-inv F
 -0.285714  0.000000  0.400000    0.00408163 104 t-inv F
 -0.142857  0.000000  0.400000    0.00408163 105 t-inv F
  0.000000  0.142857  0.400000    0.00408163 106 t-inv F
  0.142857  0.142857  0.400000    0.00408163 107 t-inv F
  0.285714  0.142857  0.400000    0.00408163 108 t-inv F
  0.428571  0.142857  0.400000    0.00408163 109 t-inv F
 -0.428571  0.142857  0.400000    0.00408163 110 t-inv F
 -0.285714  0.142857  0.400000    0.00408163 111 t-inv F
 -0.142857  0.142857  0.400000    0.00408163 112 t-inv F
  0.000000  0.285714  0.400000    0.00408163 113 t-inv F
  0.142857  0.285714  0.400000    0.00408163 114 t-inv F
  0.285714  0.285714  0.400000    0.00408163 115 t-inv F
  0.428571  0.285714  0.400000    0.00408163 116 t-inv F
 -0.428571  0.285714  0.400000    0.00408163 117 t-inv F
 -0.285714  0.285714  0.400000    0.00408163 118 t-inv F
 -0.142857  0.285714  0.400000    0.00408163 119 t-inv F
  0.000000  0.428571  0.400000    0.00408163 120 t-inv F
  0.142857  0.428571  0.400000    0.00408163 121 t-inv F
  0.285714  0.428571  0.400000    0.00408163 122 t-inv F
  0.428571  0.428571  0.400000    0.00408163 123 t-inv F
 -0.428571  0.428571  0.400000    0.00408163 124 t-inv F
 -0.285714  0.428571  0.400000    0.00408163 125 t-inv F
 -0.142857  0.428571  0.400000    0.00408163 126 t-inv F
  0.000000 -0.428571  0.400000    0.00408163 127 t-inv F
  0.142857 -0.428571  0.400000    0.00408163 128 t-inv F
  0.285714 -0.428571  0.400000    0.00408163 129 t-inv F
  0.428571 -0.428571  0.400000    0.00408163 130 t-inv F
 -0.428571 -0.428571  0.400000    0.00408163 131 t-inv F
 -0.285714 -0.428571  0.400000    0.00408163 132 t-inv F
 -0.142857 -0.428571  0.400000    0.00408163 133 t-inv F
  0.000000 -0.285714  0.400000    0.00408163 134 t-inv F
  0.142857 -0.285714  0.400000    0.00408163 135 t-inv F
  0.285714 -0.285714  0.400000    0.00408163 136 t-inv F
  0.428571 -0.285714  0.400000    0.00408163 137 t-inv F
 -0.428571 -0.285714  0.400000    0.00408163 138 t-inv F
 -0.285714 -0.285714  0.400000    0.00408163 139 t-inv F
 -0.142857 -0.285714  0.400000    0.00408163 140 t-inv F
  0.000000 -0.142857  0.400000    0.00408163 141 t-inv F
  0.142857 -0.142857  0.400000    0.00408163 142 t-inv F
  0.285714 -0.142857  0.400000    0.00408163 143 t-inv F
  0.428571 -0.142857  0.400000    0.00408163 144 t-inv F
 -0.428571 -0.142857  0.400000    0.00408163 145 t-inv F
 -0.285714 -0.142857  0.400000    0.00408163 146 t-inv F
 -0.142857 -0.142857  0.400000    0.00408163 147 t-inv F
  0.000000  0.000000 -0.400000    0.00408163 148 t-inv F
  0.142857  0.000000 -0.400000    0.00408163 149 t-inv F
  0.285714  0.000000 -0.400000    0.00408163 150 t-inv F
  0.428571  0.000000 -0.400000    0.00408163 151 t-inv F
 -0.428571  0.000000 -0.400000    0.00408163 152 t-inv F
 -0.285714  0.000000 -0.400000    0.00408163 153 t-inv F
 -0.142857  0.000000 -0.400000    0.00408163 154 t-inv F
  0.000000  0.142857 -0.400000    0.00408163 155 t-inv F
  0.142857  0.142857 -0.400000    0.00408163 156 t-inv F
  0.285714  0.142857 -0.400000    0.00408163 157 t-inv F
  0.428571  0.142857 -0.400000    0.00408163 158 t-inv F
 -0.428571  0.142857 -0.400000    0.00408163 159 t-inv F
 -0.285714  0.142857 -0.400000    0.00408163 160 t-inv F
 -0.142857  0.142857 -0.400000    0.00408163 161 t-inv F
  0.000000  0.285714 -0.400000    0.00408163 162 t-inv F
  0.142857  0.285714 -0.400000    0.00408163 163 t-inv F
  0.285714  0.285714 -0.400000    0.00408163 164 t-inv F
  0.428571  0.285714 -0.400000    0.00408163 165 t-inv F
 -0.428571  0.285714 -0.400000    0.00408163 166 t-inv F
 -0.285714  0.285714 -0.400000    0.00408163 167 t-inv F
 -0.142857  0.285714 -0.400000    0.00408163 168 t-inv F
  0.000000  0.428571 -0.400000    0.00408163 169 t-inv F
  0.142857  0.428571 -0.400000    0.00408163 170 t-inv F
  0.285714  0.428571 -0.400000    0.00408163 171 t-inv F
  0.428571  0.428571 -0.400000    0.00408163 172 t-inv F
 -0.428571  0.428571 -0.400000    0.00408163 173 t-inv F
 -0.285714  0.428571 -0.400000    0.00408163 174 t-inv F
 -0.142857  0.428571 -0.400000    0.00408163 175 t-inv F
  0.000000 -0.428571 -0.400000    0.00408163 176 t-inv F
  0.142857 -0.428571 -0.400000    0.00408163 177 t-inv F
  0.285714 -0.428571 -0.400000    0.00408163 178 t-inv F
  0.428571 -0.428571 -0.400000    0.00408163 179 t-inv F
 -0.428571 -0.428571 -0.400000    0.00408163 180 t-inv F
 -0.285714 -0.428571 -0.400000    0.00408163 181 t-inv F
 -0.142857 -0.428571 -0.400000    0.00408163 182 t-inv F
  0.000000 -0.285714 -0.400000    0.00408163 183 t-inv F
  0.142857 -0.285714 -0.400000    0.00408163 184 t-inv F
  0.285714 -0.285714 -0.400000    0.00408163 185 t-inv F
  0.428571 -0.285714 -0.400000    0.00408163 186 t-inv F
 -0.428571 -0.285714 -0.400000    0.00408163 187 t-inv F
 -0.285714 -0.285714 -0.400000    0.00408163 188 t-inv F
 -0.142857 -0.285714 -0.400000    0.00408163 189 t-inv F
  0.000000 -0.142857 -0.400000    0.00408163 190 t-inv F
  0.142857 -0.142857 -0.400000    0.00408163 191 t-inv F
  0.285714 -0.142857 -0.400000    0.00408163 192 t-inv F
  0.428571 -0.142857 -0.400000    0.00408163 193 t-inv F
 -0.428571 -0.142857 -0.400000    0.00408163 194 t-inv F
 -0.285714 -0.142857 -0.400000    0.00408163 195 t-inv F
 -0.142857 -0.142857 -0.400000    0.00408163 196 t-inv F
  0.000000  0.000000 -0.200000    0.00408163 197 t-inv F
  0.142857  0.000000 -0.200000    0.00408163 198 t-inv F
  0.285714  0.000000 -0.200000    0.00408163 199 t-inv F
  0.428571  0.000000 -0.200000    0.00408163 200 t-inv F
 -0.428571  0.000000 -0.200000    0.00408163 201 t-inv F
 -0.285714  0.000000 -0.200000    0.00408163 202 t-inv F
 -0.142857  0.000000 -0.200000    0.00408163 203 t-inv F
  0.000000  0.142857 -0.200000    0.00408163 204 t-inv F
  0.142857  0.142857 -0.200000    0.00408163 205 t-inv F
  0.285714  0.142857 -0.200000    0.00408163 206 t-inv F
  0.428571  0.142857 -0.200000    0.00408163 207 t-inv F
 -0.428571  0.142857 -0.200000    0.00408163 208 t-inv F
 -0.285714  0.142857 -0.200000    0.00408163 209 t-inv F
 -0.142857  0.142857 -0.200000    0.00408163 210 t-inv F
  0.000000  0.285714 -0.200000    0.00408163 211 t-inv F
  0.142857  0.285714 -0.200000    0.00408163 212 t-inv F
  0.285714  0.285714 -0.200000    0.00408163 213 t-inv F
  0.428571  0.285714 -0.200000    0.00408163 214 t-inv F
 -0.428571  0.285714 -0.200000    0.00408163 215 t-inv F
 -0.285714  0.285714 -0.200000    0.00408163 216 t-inv F
 -0.142857  0.285714 -0.200000    0.00408163 217 t-inv F
  0.000000  0.428571 -0.200000    0.00408163 218 t-inv F
  0.142857  0.428571 -0.200000    0.00408163 219 t-inv F
  0.285714  0.428571 -0.200000    0.00408163 220 t-inv F
  0.428571  0.428571 -0.200000    0.00408163 221 t-inv F
 -0.428571  0.428571 -0.200000    0.00408163 222 t-inv F
 -0.285714  0.428571 -0.200000    0.00408163 223 t-inv F
 -0.142857  0.428571 -0.200000    0.00408163 224 t-inv F
  0.000000 -0.428571 -0.200000    0.00408163 225 t-inv F
  0.142857 -0.428571 -0.200000    0.00408163 226 t-inv F
  0.285714 -0.428571 -0.200000    0.00408163 227 t-inv F
  0.428571 -0.428571 -0.200000    0.00408163 228 t-inv F
 -0.428571 -0.428571 -0.200000    0.00408163 229 t-inv F
 -0.285714 -0.428571 -0.200000    0.00408163 230 t-inv F
 -0.142857 -0.428571 -0.200000    0.00408163 231 t-inv F
  0.000000 -0.285714 -0.200000    0.00408163 232 t-inv F
  0.142857 -0.285714 -0.200000    0.00408163 233 t-inv F
  0.285714 -0.285714 -0.200000    0.00408163 234 t-inv F
  0.428571 -0.285714 -0.200000    0.00408163 235 t-inv F
 -0.428571 -0.285714 -0.200000    0.00408163 236 t-inv F
 -0.285714 -0.285714 -0.200000    0.00408163 237 t-inv F
 -0.142857 -0.285714 -0.200000    0.00408163 238 t-inv F
  0.000000 -0.142857 -0.200000    0.00408163 239 t-inv F
  0.142857 -0.142857 -0.200000    0.00408163 240 t-inv F
  0.285714 -0.142857 -0.200000    0.00408163 241 t-inv F
  0.428571 -0.142857 -0.200000    0.00408163 242 t-inv F
 -0.428571 -0.142857 -0.200000    0.00408163 243 t-inv F
 -0.285714 -0.142857 -0.200000    0.00408163 244 t-inv F
 -0.142857 -0.142857 -0.200000    0.00408163 245 t-inv F


--------------------------------------------------------------------------------------------------------




 Dimension of arrays:
   k-points           NKPTS =    245   k-points in BZ     NKDIM =    245   number of bands    NBANDS=    128
   number of dos      NEDOS =   3001   number of ions     NIONS =     20
   non local maximal  LDIM  =      6   non local SUM 2l+1 LMDIM =     18
   total plane-waves  NPLWV =  49152
   max r-space proj   IRMAX =      1   max aug-charges    IRDMAX=  11348
   dimension x,y,z NGX =    32 NGY =   32 NGZ =   48
   dimension x,y,z NGXF=    64 NGYF=   64 NGZF=   96
   support grid    NGXF=    64 NGYF=   64 NGZF=   96
   ions per type =               4   4  12
   NGX,Y,Z   is equivalent  to a cutoff of   9.98, 10.00, 10.76 a.u.
   NGXF,Y,Z  is equivalent  to a cutoff of  19.96, 19.99, 21.52 a.u.

 SYSTEM =  CaFeO3 R1+0.20                          
 POSCAR =  Ca Fe  O                                

 Startparameter for this run:
   NWRITE =      2    write-flag & timer
   PREC   = normal    normal or accurate (medium, high low for compatibility)
   ISTART =      0    job   : 0-new  1-cont  2-samecut
   ICHARG =      5    charge: 1-file 2-atom 10-const
   ISPIN  =      1    spin polarized calculation?
   LNONCOLLINEAR =      F non collinear calculations
   LSORBIT =      F    spin-orbit coupling
   INIWAV =      1    electr: 0-lowe 1-rand  2-diag
   LASPH  =      F    aspherical Exc in radial PAW
   METAGGA=      F    non-selfconsistent MetaGGA calc.

 Electronic Relaxation 1
   ENCUT  =  600.0 eV  44.10 Ry    6.64 a.u.  10.65 10.63 14.81*2*pi/ulx,y,z
   ENINI  =  600.0     initial cutoff
   ENAUG  =  605.4 eV  augmentation charge cutoff
   NELM   =   1000;   NELMIN=***; NELMDL= -8     # of ELM steps 
   EDIFF  = 0.1E-03   stopping-criterion for ELM
   LREAL  =      F    real-space projection
   NLSPLINE    = F    spline interpolate recip. space projectors
   LCOMPAT=      F    compatible to vasp.4.4
   GGA_COMPAT  = T    GGA compatible to vasp.4.4-vasp.4.6
   LMAXPAW     = -100 max onsite density
   LMAXMIX     =    4 max onsite mixed and CHGCAR
   VOSKOWN=      0    Vosko Wilk Nusair interpolation
   ROPT   =    0.00000   0.00000   0.00000
 Ionic relaxation
   EDIFFG = 0.1E-02   stopping-criterion for IOM
   NSW    =      0    number of steps for IOM
   NBLOCK =      1;   KBLOCK =      1    inner block; outer block 
   IBRION =     -1    ionic relax: 0-MD 1-quasi-New 2-CG
   NFREE  =      0    steps in history (QN), initial steepest desc. (CG)
   ISIF   =      2    stress and relaxation
   IWAVPR =     10    prediction:  0-non 1-charg 2-wave 3-comb
   ISYM   =     -1    0-nonsym 1-usesym 2-fastsym
   LCORR  =      T    Harris-Foulkes like correction to forces

   POTIM  = 0.5000    time-step for ionic-motion
   TEIN   =    0.0    initial temperature
   TEBEG  =    0.0;   TEEND  =   0.0 temperature during run
   SMASS  =  -3.00    Nose mass-parameter (am)
   estimated Nose-frequenzy (Omega)   =  0.10E-29 period in steps =****** mass=  -0.649E-27a.u.
   SCALEE = 1.0000    scale energy and forces
   NPACO  =    256;   APACO  = 16.0  distance and # of slots for P.C.
   PSTRESS=    0.0 pullay stress

  Mass of Ions in am
   POMASS =  40.08 55.85 16.00
  Ionic Valenz
   ZVAL   =  10.00 14.00  6.00
  Atomic Wigner-Seitz radii
   RWIGS  =  -1.00 -1.00 -1.00
  virtual crystal weights 
   VCA    =   1.00  1.00  1.00
   NELECT =     168.0000    total number of electrons
   NUPDOWN=      -1.0000    fix difference up-down

 DOS related values:
   EMIN   =  -5.00;   EMAX   = 10.00  energy-range for DOS
   EFERMI =   0.00
   ISMEAR =    -5;   SIGMA  =   0.01  broadening in eV -4-tet -1-fermi 0-gaus

 Electronic relaxation 2 (details)
   IALGO  =     38    algorithm
   LDIAG  =      T    sub-space diagonalisation (order eigenvalues)
   LSUBROT=      F    optimize rotation matrix (better conditioning)
   TURBO    =      0    0=normal 1=particle mesh
   IRESTART =      0    0=no restart 2=restart with 2 vectors
   NREBOOT  =      0    no. of reboots
   NMIN     =      0    reboot dimension
   EREF     =   0.00    reference energy to select bands
   IMIX   =      4    mixing-type and parameters
     AMIX     =   0.40;   BMIX     =  1.00
     AMIX_MAG =   1.60;   BMIX_MAG =  1.00
     AMIN     =   0.10
     WC   =   100.;   INIMIX=   1;  MIXPRE=   1;  MAXMIX= -45

 Intra band minimization:
   WEIMIN = 0.0000     energy-eigenvalue tresh-hold
   EBREAK =  0.20E-06  absolut break condition
   DEPER  =   0.30     relativ break condition  

   TIME   =   0.40     timestep for ELM

  volume/ion in A,a.u.               =      10.52        70.97
  Fermi-wavevector in a.u.,A,eV,Ry     =   1.518934  2.870369 31.390833  2.307161
  Thomas-Fermi vector in A             =   2.627988

 Write flags
   LWAVE        =      F    write WAVECAR
   LDOWNSAMPLE  =      F    k-point downsampling of WAVECAR
   LCHARG       =      F    write CHGCAR
   LVTOT        =      F    write LOCPOT, total local potential
   LVHAR        =      F    write LOCPOT, Hartree potential only
   LELF         =      F    write electronic localiz. function (ELF)
   LORBIT       =     14    0 simple, 1 ext, 2 COOP (PROOUT), +10 PAW based schemes


 Dipole corrections
   LMONO  =      F    monopole corrections only (constant potential shift)
   LDIPOL =      F    correct potential (dipole corrections)
   IDIPOL =      0    1-x, 2-y, 3-z, 4-all directions 
   EPSILON=  1.0000000 bulk dielectric constant

 Exchange correlation treatment:
   GGA     =    PS    GGA type
   LEXCH   =    14    internal setting for exchange type
   VOSKOWN=      0    Vosko Wilk Nusair interpolation
   LHFCALC =     F    Hartree Fock is set to
   LHFONE  =     F    Hartree Fock one center treatment
   AEXX    =    0.0000 exact exchange contribution

 Linear response parameters
   LEPSILON=     F    determine dielectric tensor
   LRPA    =     F    only Hartree local field effects (RPA)
   LNABLA  =     F    use nabla operator in PAW spheres
   LVEL    =     F    velocity operator in full k-point grid
   LINTERFAST=   F  fast interpolation
   KINTER  =     0    interpolate to denser k-point grid
   CSHIFT  =0.1000    complex shift for real part using Kramers Kronig
   OMEGAMAX=  -1.0    maximum frequency
   DEG_THRESHOLD= 0.2000000E-02 threshold for treating states as degnerate
   RTIME   =   -0.100 relaxation time in fs
  (WPLASMAI=    0.000 imaginary part of plasma frequency in eV, 0.658/RTIME)
   DFIELD  = 0.0000000 0.0000000 0.0000000 field for delta impulse in time

 Orbital magnetization related:
   ORBITALMAG=     F  switch on orbital magnetization
   LCHIMAG   =     F  perturbation theory with respect to B field
   DQ        =  0.001000  dq finite difference perturbation B field
   LLRAUG    =     F  two centre corrections for induced B field



--------------------------------------------------------------------------------------------------------


 Static calculation
 charge density and potential will be updated during run
 non-spin polarized calculation
 Variant of blocked Davidson
 Davidson routine will perform the subspace rotation
 perform sub-space diagonalisation
    after iterative eigenvector-optimisation
 modified Broyden-mixing scheme, WC =      100.0
 initial mixing is a Kerker type mixing with AMIX =  0.4000 and BMIX =      1.0000
 Hartree-type preconditioning will be used
 using additional bands           44
 reciprocal scheme for non local part
 use partial core corrections
 calculate Harris-corrections to forces   (improved forces if not selfconsistent)
 use gradient corrections 
 use of overlap-Matrix (Vanderbilt PP)
 Fermi weights with tetrahedron method with Bloechl corrections


--------------------------------------------------------------------------------------------------------


  energy-cutoff  :      600.00
  volume of cell :      210.34
      direct lattice vectors                 reciprocal lattice vectors
     5.330110000  0.000000000  0.000000000     0.187613389  0.000000000  0.000000000
     0.000000000  5.321210000  0.000000000     0.000000000  0.187927182  0.000000000
     0.000000000  0.000000000  7.416010000     0.000000000  0.000000000  0.134843400

  length of vectors
     5.330110000  5.321210000  7.416010000     0.187613389  0.187927182  0.134843400



 k-points in units of 2pi/SCALE and weight: KPOINTS created by Atomic Simulation Env
   0.00000000  0.00000000  0.00000000       0.004
   0.02680191  0.00000000  0.00000000       0.004
   0.05360383  0.00000000  0.00000000       0.004
   0.08040574  0.00000000  0.00000000       0.004
  -0.08040574  0.00000000  0.00000000       0.004
  -0.05360383  0.00000000  0.00000000       0.004
  -0.02680191  0.00000000  0.00000000       0.004
   0.00000000  0.02684674  0.00000000       0.004
   0.02680191  0.02684674  0.00000000       0.004
   0.05360383  0.02684674  0.00000000       0.004
   0.08040574  0.02684674  0.00000000       0.004
  -0.08040574  0.02684674  0.00000000       0.004
  -0.05360383  0.02684674  0.00000000       0.004
  -0.02680191  0.02684674  0.00000000       0.004
   0.00000000  0.05369348  0.00000000       0.004
   0.02680191  0.05369348  0.00000000       0.004
   0.05360383  0.05369348  0.00000000       0.004
   0.08040574  0.05369348  0.00000000       0.004
  -0.08040574  0.05369348  0.00000000       0.004
  -0.05360383  0.05369348  0.00000000       0.004
  -0.02680191  0.05369348  0.00000000       0.004
   0.00000000  0.08054022  0.00000000       0.004
   0.02680191  0.08054022  0.00000000       0.004
   0.05360383  0.08054022  0.00000000       0.004
   0.08040574  0.08054022  0.00000000       0.004
  -0.08040574  0.08054022  0.00000000       0.004
  -0.05360383  0.08054022  0.00000000       0.004
  -0.02680191  0.08054022  0.00000000       0.004
   0.00000000 -0.08054022  0.00000000       0.004
   0.02680191 -0.08054022  0.00000000       0.004
   0.05360383 -0.08054022  0.00000000       0.004
   0.08040574 -0.08054022  0.00000000       0.004
  -0.08040574 -0.08054022  0.00000000       0.004
  -0.05360383 -0.08054022  0.00000000       0.004
  -0.02680191 -0.08054022  0.00000000       0.004
   0.00000000 -0.05369348  0.00000000       0.004
   0.02680191 -0.05369348  0.00000000       0.004
   0.05360383 -0.05369348  0.00000000       0.004
   0.08040574 -0.05369348  0.00000000       0.004
  -0.08040574 -0.05369348  0.00000000       0.004
  -0.05360383 -0.05369348  0.00000000       0.004
  -0.02680191 -0.05369348  0.00000000       0.004
   0.00000000 -0.02684674  0.00000000       0.004
   0.02680191 -0.02684674  0.00000000       0.004
   0.05360383 -0.02684674  0.00000000       0.004
   0.08040574 -0.02684674  0.00000000       0.004
  -0.08040574 -0.02684674  0.00000000       0.004
  -0.05360383 -0.02684674  0.00000000       0.004
  -0.02680191 -0.02684674  0.00000000       0.004
   0.00000000  0.00000000  0.02696868       0.004
   0.02680191  0.00000000  0.02696868       0.004
   0.05360383  0.00000000  0.02696868       0.004
   0.08040574  0.00000000  0.02696868       0.004
  -0.08040574  0.00000000  0.02696868       0.004
  -0.05360383  0.00000000  0.02696868       0.004
  -0.02680191  0.00000000  0.02696868       0.004
   0.00000000  0.02684674  0.02696868       0.004
   0.02680191  0.02684674  0.02696868       0.004
   0.05360383  0.02684674  0.02696868       0.004
   0.08040574  0.02684674  0.02696868       0.004
  -0.08040574  0.02684674  0.02696868       0.004
  -0.05360383  0.02684674  0.02696868       0.004
  -0.02680191  0.02684674  0.02696868       0.004
   0.00000000  0.05369348  0.02696868       0.004
   0.02680191  0.05369348  0.02696868       0.004
   0.05360383  0.05369348  0.02696868       0.004
   0.08040574  0.05369348  0.02696868       0.004
  -0.08040574  0.05369348  0.02696868       0.004
  -0.05360383  0.05369348  0.02696868       0.004
  -0.02680191  0.05369348  0.02696868       0.004
   0.00000000  0.08054022  0.02696868       0.004
   0.02680191  0.08054022  0.02696868       0.004
   0.05360383  0.08054022  0.02696868       0.004
   0.08040574  0.08054022  0.02696868       0.004
  -0.08040574  0.08054022  0.02696868       0.004
  -0.05360383  0.08054022  0.02696868       0.004
  -0.02680191  0.08054022  0.02696868       0.004
   0.00000000 -0.08054022  0.02696868       0.004
   0.02680191 -0.08054022  0.02696868       0.004
   0.05360383 -0.08054022  0.02696868       0.004
   0.08040574 -0.08054022  0.02696868       0.004
  -0.08040574 -0.08054022  0.02696868       0.004
  -0.05360383 -0.08054022  0.02696868       0.004
  -0.02680191 -0.08054022  0.02696868       0.004
   0.00000000 -0.05369348  0.02696868       0.004
   0.02680191 -0.05369348  0.02696868       0.004
   0.05360383 -0.05369348  0.02696868       0.004
   0.08040574 -0.05369348  0.02696868       0.004
  -0.08040574 -0.05369348  0.02696868       0.004
  -0.05360383 -0.05369348  0.02696868       0.004
  -0.02680191 -0.05369348  0.02696868       0.004
   0.00000000 -0.02684674  0.02696868       0.004
   0.02680191 -0.02684674  0.02696868       0.004
   0.05360383 -0.02684674  0.02696868       0.004
   0.08040574 -0.02684674  0.02696868       0.004
  -0.08040574 -0.02684674  0.02696868       0.004
  -0.05360383 -0.02684674  0.02696868       0.004
  -0.02680191 -0.02684674  0.02696868       0.004
   0.00000000  0.00000000  0.05393736       0.004
   0.02680191  0.00000000  0.05393736       0.004
   0.05360383  0.00000000  0.05393736       0.004
   0.08040574  0.00000000  0.05393736       0.004
  -0.08040574  0.00000000  0.05393736       0.004
  -0.05360383  0.00000000  0.05393736       0.004
  -0.02680191  0.00000000  0.05393736       0.004
   0.00000000  0.02684674  0.05393736       0.004
   0.02680191  0.02684674  0.05393736       0.004
   0.05360383  0.02684674  0.05393736       0.004
   0.08040574  0.02684674  0.05393736       0.004
  -0.08040574  0.02684674  0.05393736       0.004
  -0.05360383  0.02684674  0.05393736       0.004
  -0.02680191  0.02684674  0.05393736       0.004
   0.00000000  0.05369348  0.05393736       0.004
   0.02680191  0.05369348  0.05393736       0.004
   0.05360383  0.05369348  0.05393736       0.004
   0.08040574  0.05369348  0.05393736       0.004
  -0.08040574  0.05369348  0.05393736       0.004
  -0.05360383  0.05369348  0.05393736       0.004
  -0.02680191  0.05369348  0.05393736       0.004
   0.00000000  0.08054022  0.05393736       0.004
   0.02680191  0.08054022  0.05393736       0.004
   0.05360383  0.08054022  0.05393736       0.004
   0.08040574  0.08054022  0.05393736       0.004
  -0.08040574  0.08054022  0.05393736       0.004
  -0.05360383  0.08054022  0.05393736       0.004
  -0.02680191  0.08054022  0.05393736       0.004
   0.00000000 -0.08054022  0.05393736       0.004
   0.02680191 -0.08054022  0.05393736       0.004
   0.05360383 -0.08054022  0.05393736       0.004
   0.08040574 -0.08054022  0.05393736       0.004
  -0.08040574 -0.08054022  0.05393736       0.004
  -0.05360383 -0.08054022  0.05393736       0.004
  -0.02680191 -0.08054022  0.05393736       0.004
   0.00000000 -0.05369348  0.05393736       0.004
   0.02680191 -0.05369348  0.05393736       0.004
   0.05360383 -0.05369348  0.05393736       0.004
   0.08040574 -0.05369348  0.05393736       0.004
  -0.08040574 -0.05369348  0.05393736       0.004
  -0.05360383 -0.05369348  0.05393736       0.004
  -0.02680191 -0.05369348  0.05393736       0.004
   0.00000000 -0.02684674  0.05393736       0.004
   0.02680191 -0.02684674  0.05393736       0.004
   0.05360383 -0.02684674  0.05393736       0.004
   0.08040574 -0.02684674  0.05393736       0.004
  -0.08040574 -0.02684674  0.05393736       0.004
  -0.05360383 -0.02684674  0.05393736       0.004
  -0.02680191 -0.02684674  0.05393736       0.004
   0.00000000  0.00000000 -0.05393736       0.004
   0.02680191  0.00000000 -0.05393736       0.004
   0.05360383  0.00000000 -0.05393736       0.004
   0.08040574  0.00000000 -0.05393736       0.004
  -0.08040574  0.00000000 -0.05393736       0.004
  -0.05360383  0.00000000 -0.05393736       0.004
  -0.02680191  0.00000000 -0.05393736       0.004
   0.00000000  0.02684674 -0.05393736       0.004
   0.02680191  0.02684674 -0.05393736       0.004
   0.05360383  0.02684674 -0.05393736       0.004
   0.08040574  0.02684674 -0.05393736       0.004
  -0.08040574  0.02684674 -0.05393736       0.004
  -0.05360383  0.02684674 -0.05393736       0.004
  -0.02680191  0.02684674 -0.05393736       0.004
   0.00000000  0.05369348 -0.05393736       0.004
   0.02680191  0.05369348 -0.05393736       0.004
   0.05360383  0.05369348 -0.05393736       0.004
   0.08040574  0.05369348 -0.05393736       0.004
  -0.08040574  0.05369348 -0.05393736       0.004
  -0.05360383  0.05369348 -0.05393736       0.004
  -0.02680191  0.05369348 -0.05393736       0.004
   0.00000000  0.08054022 -0.05393736       0.004
   0.02680191  0.08054022 -0.05393736       0.004
   0.05360383  0.08054022 -0.05393736       0.004
   0.08040574  0.08054022 -0.05393736       0.004
  -0.08040574  0.08054022 -0.05393736       0.004
  -0.05360383  0.08054022 -0.05393736       0.004
  -0.02680191  0.08054022 -0.05393736       0.004
   0.00000000 -0.08054022 -0.05393736       0.004
   0.02680191 -0.08054022 -0.05393736       0.004
   0.05360383 -0.08054022 -0.05393736       0.004
   0.08040574 -0.08054022 -0.05393736       0.004
  -0.08040574 -0.08054022 -0.05393736       0.004
  -0.05360383 -0.08054022 -0.05393736       0.004
  -0.02680191 -0.08054022 -0.05393736       0.004
   0.00000000 -0.05369348 -0.05393736       0.004
   0.02680191 -0.05369348 -0.05393736       0.004
   0.05360383 -0.05369348 -0.05393736       0.004
   0.08040574 -0.05369348 -0.05393736       0.004
  -0.08040574 -0.05369348 -0.05393736       0.004
  -0.05360383 -0.05369348 -0.05393736       0.004
  -0.02680191 -0.05369348 -0.05393736       0.004
   0.00000000 -0.02684674 -0.05393736       0.004
   0.02680191 -0.02684674 -0.05393736       0.004
   0.05360383 -0.02684674 -0.05393736       0.004
   0.08040574 -0.02684674 -0.05393736       0.004
  -0.08040574 -0.02684674 -0.05393736       0.004
  -0.05360383 -0.02684674 -0.05393736       0.004
  -0.02680191 -0.02684674 -0.05393736       0.004
   0.00000000  0.00000000 -0.02696868       0.004
   0.02680191  0.00000000 -0.02696868       0.004
   0.05360383  0.00000000 -0.02696868       0.004
   0.08040574  0.00000000 -0.02696868       0.004
  -0.08040574  0.00000000 -0.02696868       0.004
  -0.05360383  0.00000000 -0.02696868       0.004
  -0.02680191  0.00000000 -0.02696868       0.004
   0.00000000  0.02684674 -0.02696868       0.004
   0.02680191  0.02684674 -0.02696868       0.004
   0.05360383  0.02684674 -0.02696868       0.004
   0.08040574  0.02684674 -0.02696868       0.004
  -0.08040574  0.02684674 -0.02696868       0.004
  -0.05360383  0.02684674 -0.02696868       0.004
  -0.02680191  0.02684674 -0.02696868       0.004
   0.00000000  0.05369348 -0.02696868       0.004
   0.02680191  0.05369348 -0.02696868       0.004
   0.05360383  0.05369348 -0.02696868       0.004
   0.08040574  0.05369348 -0.02696868       0.004
  -0.08040574  0.05369348 -0.02696868       0.004
  -0.05360383  0.05369348 -0.02696868       0.004
  -0.02680191  0.05369348 -0.02696868       0.004
   0.00000000  0.08054022 -0.02696868       0.004
   0.02680191  0.08054022 -0.02696868       0.004
   0.05360383  0.08054022 -0.02696868       0.004
   0.08040574  0.08054022 -0.02696868       0.004
  -0.08040574  0.08054022 -0.02696868       0.004
  -0.05360383  0.08054022 -0.02696868       0.004
  -0.02680191  0.08054022 -0.02696868       0.004
   0.00000000 -0.08054022 -0.02696868       0.004
   0.02680191 -0.08054022 -0.02696868       0.004
   0.05360383 -0.08054022 -0.02696868       0.004
   0.08040574 -0.08054022 -0.02696868       0.004
  -0.08040574 -0.08054022 -0.02696868       0.004
  -0.05360383 -0.08054022 -0.02696868       0.004
  -0.02680191 -0.08054022 -0.02696868       0.004
   0.00000000 -0.05369348 -0.02696868       0.004
   0.02680191 -0.05369348 -0.02696868       0.004
   0.05360383 -0.05369348 -0.02696868       0.004
   0.08040574 -0.05369348 -0.02696868       0.004
  -0.08040574 -0.05369348 -0.02696868       0.004
  -0.05360383 -0.05369348 -0.02696868       0.004
  -0.02680191 -0.05369348 -0.02696868       0.004
   0.00000000 -0.02684674 -0.02696868       0.004
   0.02680191 -0.02684674 -0.02696868       0.004
   0.05360383 -0.02684674 -0.02696868       0.004
   0.08040574 -0.02684674 -0.02696868       0.004
  -0.08040574 -0.02684674 -0.02696868       0.004
  -0.05360383 -0.02684674 -0.02696868       0.004
  -0.02680191 -0.02684674 -0.02696868       0.004

 k-points in reciprocal lattice and weights: KPOINTS created by Atomic Simulation Env
   0.00000000  0.00000000  0.00000000       0.004
   0.14285714  0.00000000  0.00000000       0.004
   0.28571429  0.00000000  0.00000000       0.004
   0.42857143  0.00000000  0.00000000       0.004
  -0.42857143  0.00000000  0.00000000       0.004
  -0.28571429  0.00000000  0.00000000       0.004
  -0.14285714  0.00000000  0.00000000       0.004
   0.00000000  0.14285714  0.00000000       0.004
   0.14285714  0.14285714  0.00000000       0.004
   0.28571429  0.14285714  0.00000000       0.004
   0.42857143  0.14285714  0.00000000       0.004
  -0.42857143  0.14285714  0.00000000       0.004
  -0.28571429  0.14285714  0.00000000       0.004
  -0.14285714  0.14285714  0.00000000       0.004
   0.00000000  0.28571429  0.00000000       0.004
   0.14285714  0.28571429  0.00000000       0.004
   0.28571429  0.28571429  0.00000000       0.004
   0.42857143  0.28571429  0.00000000       0.004
  -0.42857143  0.28571429  0.00000000       0.004
  -0.28571429  0.28571429  0.00000000       0.004
  -0.14285714  0.28571429  0.00000000       0.004
   0.00000000  0.42857143  0.00000000       0.004
   0.14285714  0.42857143  0.00000000       0.004
   0.28571429  0.42857143  0.00000000       0.004
   0.42857143  0.42857143  0.00000000       0.004
  -0.42857143  0.42857143  0.00000000       0.004
  -0.28571429  0.42857143  0.00000000       0.004
  -0.14285714  0.42857143  0.00000000       0.004
   0.00000000 -0.42857143  0.00000000       0.004
   0.14285714 -0.42857143  0.00000000       0.004
   0.28571429 -0.42857143  0.00000000       0.004
   0.42857143 -0.42857143  0.00000000       0.004
  -0.42857143 -0.42857143  0.00000000       0.004
  -0.28571429 -0.42857143  0.00000000       0.004
  -0.14285714 -0.42857143  0.00000000       0.004
   0.00000000 -0.28571429  0.00000000       0.004
   0.14285714 -0.28571429  0.00000000       0.004
   0.28571429 -0.28571429  0.00000000       0.004
   0.42857143 -0.28571429  0.00000000       0.004
  -0.42857143 -0.28571429  0.00000000       0.004
  -0.28571429 -0.28571429  0.00000000       0.004
  -0.14285714 -0.28571429  0.00000000       0.004
   0.00000000 -0.14285714  0.00000000       0.004
   0.14285714 -0.14285714  0.00000000       0.004
   0.28571429 -0.14285714  0.00000000       0.004
   0.42857143 -0.14285714  0.00000000       0.004
  -0.42857143 -0.14285714  0.00000000       0.004
  -0.28571429 -0.14285714  0.00000000       0.004
  -0.14285714 -0.14285714  0.00000000       0.004
   0.00000000  0.00000000  0.20000000       0.004
   0.14285714  0.00000000  0.20000000       0.004
   0.28571429  0.00000000  0.20000000       0.004
   0.42857143  0.00000000  0.20000000       0.004
  -0.42857143  0.00000000  0.20000000       0.004
  -0.28571429  0.00000000  0.20000000       0.004
  -0.14285714  0.00000000  0.20000000       0.004
   0.00000000  0.14285714  0.20000000       0.004
   0.14285714  0.14285714  0.20000000       0.004
   0.28571429  0.14285714  0.20000000       0.004
   0.42857143  0.14285714  0.20000000       0.004
  -0.42857143  0.14285714  0.20000000       0.004
  -0.28571429  0.14285714  0.20000000       0.004
  -0.14285714  0.14285714  0.20000000       0.004
   0.00000000  0.28571429  0.20000000       0.004
   0.14285714  0.28571429  0.20000000       0.004
   0.28571429  0.28571429  0.20000000       0.004
   0.42857143  0.28571429  0.20000000       0.004
  -0.42857143  0.28571429  0.20000000       0.004
  -0.28571429  0.28571429  0.20000000       0.004
  -0.14285714  0.28571429  0.20000000       0.004
   0.00000000  0.42857143  0.20000000       0.004
   0.14285714  0.42857143  0.20000000       0.004
   0.28571429  0.42857143  0.20000000       0.004
   0.42857143  0.42857143  0.20000000       0.004
  -0.42857143  0.42857143  0.20000000       0.004
  -0.28571429  0.42857143  0.20000000       0.004
  -0.14285714  0.42857143  0.20000000       0.004
   0.00000000 -0.42857143  0.20000000       0.004
   0.14285714 -0.42857143  0.20000000       0.004
   0.28571429 -0.42857143  0.20000000       0.004
   0.42857143 -0.42857143  0.20000000       0.004
  -0.42857143 -0.42857143  0.20000000       0.004
  -0.28571429 -0.42857143  0.20000000       0.004
  -0.14285714 -0.42857143  0.20000000       0.004
   0.00000000 -0.28571429  0.20000000       0.004
   0.14285714 -0.28571429  0.20000000       0.004
   0.28571429 -0.28571429  0.20000000       0.004
   0.42857143 -0.28571429  0.20000000       0.004
  -0.42857143 -0.28571429  0.20000000       0.004
  -0.28571429 -0.28571429  0.20000000       0.004
  -0.14285714 -0.28571429  0.20000000       0.004
   0.00000000 -0.14285714  0.20000000       0.004
   0.14285714 -0.14285714  0.20000000       0.004
   0.28571429 -0.14285714  0.20000000       0.004
   0.42857143 -0.14285714  0.20000000       0.004
  -0.42857143 -0.14285714  0.20000000       0.004
  -0.28571429 -0.14285714  0.20000000       0.004
  -0.14285714 -0.14285714  0.20000000       0.004
   0.00000000  0.00000000  0.40000000       0.004
   0.14285714  0.00000000  0.40000000       0.004
   0.28571429  0.00000000  0.40000000       0.004
   0.42857143  0.00000000  0.40000000       0.004
  -0.42857143  0.00000000  0.40000000       0.004
  -0.28571429  0.00000000  0.40000000       0.004
  -0.14285714  0.00000000  0.40000000       0.004
   0.00000000  0.14285714  0.40000000       0.004
   0.14285714  0.14285714  0.40000000       0.004
   0.28571429  0.14285714  0.40000000       0.004
   0.42857143  0.14285714  0.40000000       0.004
  -0.42857143  0.14285714  0.40000000       0.004
  -0.28571429  0.14285714  0.40000000       0.004
  -0.14285714  0.14285714  0.40000000       0.004
[...]
 species Ca NT=   1 L=   1     0.915    -0.511
 species Ca NT=   1 L=   2     0.937     0.968

 species Fe NT=   2 L=   1     0.133    -0.820
 species Fe NT=   2 L=   2     0.937     0.952
 species Fe NT=   2 L=   0     0.507     0.917

 species O  NT=   3 L=   0     0.855    -0.861
 species O  NT=   3 L=   1     0.849    -0.920




 total charge     

# of ion       s       p       d       tot
------------------------------------------
    1        1.951   5.727   2.368  10.047
    2        1.950   5.712   2.343  10.004
    3        1.952   5.719   2.364  10.034
    4        1.950   5.713   2.348  10.011
    5        0.545   8.011   9.556  18.113
    6        0.553   8.011   9.551  18.114
    7        0.573   8.094   9.737  18.404
    8        0.573   8.092   9.728  18.394
    9        1.082   1.316   0.000   2.398
   10        1.094   1.320   0.000   2.414
   11        1.088   1.316   0.000   2.404
   12        1.085   1.320   0.000   2.405
   13        1.097   1.322   0.000   2.419
   14        1.086   1.311   0.000   2.396
   15        1.104   1.318   0.000   2.422
   16        1.090   1.309   0.000   2.399
   17        1.084   1.325   0.000   2.409
   18        1.087   1.326   0.000   2.413
   19        1.085   1.324   0.000   2.409
   20        1.092   1.321   0.000   2.412
--------------------------------------------------
tot         23.120  70.905  47.995 142.021

    --------------------------------------------
      LOOP:  cpu time   96.3289: real time   96.3309

 eigenvalue-minimisations  : 65704
 total energy-change (2. order) : 0.2153715E+04  (-0.7384036E+04)
 number of electron     168.0000158 magnetization 
 augmentation part      168.0000158 magnetization 

 Free energy of the ion-electron system (eV)
  ---------------------------------------------------
  alpha Z        PSCENC =       913.59836789
  Ewald energy   TEWEN  =    -13598.60011408
  -Hartree energ DENC   =     -4907.29253413
  -exchange      EXHF   =         0.00000000
  -V(xc)+E(xc)   XCENC  =       798.24343972
  PAW double counting   =     17411.43935117   -17796.62915821
  entropy T*S    EENTRO =         0.00000000
  eigenvalues    EBANDS =       323.72458248
  atomic energy  EATOM  =     19009.23125014
  Solvation  Ediel_sol  =         0.00000000
  ---------------------------------------------------
  free energy    TOTEN  =      2153.71518498 eV

  energy without entropy =     2153.71518498  energy(sigma->0) =     2153.71518498


--------------------------------------------------------------------------------------------------------




--------------------------------------- Iteration      1(   2)  ---------------------------------------


    EDDIAG:  cpu time   29.5494: real time   29.5506
     EDDAV:  cpu time   47.0797: real time   47.0801
 BZINTS: Fermi energy:  7.216592;168.000000 electrons
         Band energy:***********;  BLOECHL correction: -0.046486
       DOS:  cpu time    0.2794: real time    0.2794

 optimized coefficients for linear combined projectors, energy window      -5.00     10.00
 species Ca NT=   1 L=   0     0.973    -0.125
 species Ca NT=   1 L=   1     0.500    -0.808
 species Ca NT=   1 L=   2     0.937     0.960

 species Fe NT=   2 L=   1     0.053    -0.820
 species Fe NT=   2 L=   2     0.935     0.948
 species Fe NT=   2 L=   0     0.502     0.852

 species O  NT=   3 L=   0     0.897    -0.952
 species O  NT=   3 L=   1     0.848    -0.917




 total charge     

# of ion       s       p       d       tot
------------------------------------------
    1        2.049   5.934   0.536   8.519
    2        2.049   5.935   0.535   8.519
    3        2.050   5.933   0.537   8.519
    4        2.049   5.935   0.535   8.519
    5        0.384   6.561   7.966  14.910
    6        0.389   6.560   8.011  14.960
    7        0.496   6.754   8.013  15.263
    8        0.496   6.749   7.986  15.231
    9        1.626   2.440   0.000   4.066
   10        1.629   2.432   0.000   4.061
   11        1.627   2.433   0.000   4.060
   12        1.627   2.425   0.000   4.052
   13        1.627   2.436   0.000   4.064
   14        1.627   2.430   0.000   4.057
   15        1.628   2.421   0.000   4.049
   16        1.629   2.430   0.000   4.060
   17        1.632   2.463   0.000   4.095
   18        1.632   2.457   0.000   4.089
   19        1.631   2.461   0.000   4.091
   20        1.632   2.464   0.000   4.096
--------------------------------------------------
tot         29.510  79.653  34.119 143.281

    --------------------------------------------
      LOOP:  cpu time   77.1795: real time   77.3151

 eigenvalue-minimisations  : 62768
 total energy-change (2. order) :-0.2006789E+04  (-0.1866739E+04)
 number of electron     168.0000158 magnetization 
 augmentation part      168.0000158 magnetization 

 Free energy of the ion-electron system (eV)
  ---------------------------------------------------
  alpha Z        PSCENC =       913.59836789
  Ewald energy   TEWEN  =    -13598.60011408
  -Hartree energ DENC   =     -4907.29253413
  -exchange      EXHF   =         0.00000000
  -V(xc)+E(xc)   XCENC  =       798.24343972
  PAW double counting   =     17411.43935117   -17796.62915821
  entropy T*S    EENTRO =         0.00000000
  eigenvalues    EBANDS =     -1683.06474414
  atomic energy  EATOM  =     19009.23125014
  Solvation  Ediel_sol  =         0.00000000
  ---------------------------------------------------
  free energy    TOTEN  =       146.92585836 eV

  energy without entropy =      146.92585836  energy(sigma->0) =      146.92585836


--------------------------------------------------------------------------------------------------------




--------------------------------------- Iteration      1(   3)  ---------------------------------------


    EDDIAG:  cpu time   29.7202: real time   29.8553
     EDDAV:  cpu time   49.3372: real time   49.3377
 BZINTS: Fermi energy:  4.724900;168.000000 electrons
         Band energy:***********;  BLOECHL correction: -0.021849
       DOS:  cpu time    0.2985: real time    0.2985

 optimized coefficients for linear combined projectors, energy window      -5.00     10.00
 species Ca NT=   1 L=   0     0.780    -0.246
 species Ca NT=   1 L=   1     0.707    -0.725
 species Ca NT=   1 L=   2     0.919     0.915

 species Fe NT=   2 L=   1     0.086    -0.821
 species Fe NT=   2 L=   2     0.941     0.958
 species Fe NT=   2 L=   0     0.507     0.907

 species O  NT=   3 L=   0     0.891    -0.997
 species O  NT=   3 L=   1     0.851    -0.936




 total charge     

# of ion       s       p       d       tot
------------------------------------------
    1        2.049   5.868   0.285   8.202
    2        2.049   5.868   0.285   8.201
    3        2.049   5.868   0.285   8.202
    4        2.049   5.868   0.285   8.201
    5        0.323   6.410   6.035  12.768
    6        0.322   6.410   6.033  12.765
    7        0.402   6.586   6.079  13.068
    8        0.403   6.587   6.082  13.072
    9        1.607   3.284   0.000   4.891
   10        1.606   3.284   0.000   4.890
   11        1.607   3.282   0.000   4.889
   12        1.607   3.282   0.000   4.889
   13        1.607   3.281   0.000   4.887
   14        1.606   3.284   0.000   4.890
   15        1.606   3.279   0.000   4.885
   16        1.607   3.283   0.000   4.890
   17        1.609   3.291   0.000   4.900
   18        1.609   3.291   0.000   4.900
   19        1.609   3.293   0.000   4.903
   20        1.609   3.292   0.000   4.901
--------------------------------------------------
tot         28.935  88.891  25.368 143.195

    --------------------------------------------
      LOOP:  cpu time   79.1495: real time   79.2127

 eigenvalue-minimisations  : 67344
 total energy-change (2. order) :-0.2734713E+03  (-0.2497875E+03)
 number of electron     168.0000158 magnetization 
 augmentation part      168.0000158 magnetization 

 Free energy of the ion-electron system (eV)
  ---------------------------------------------------
  alpha Z        PSCENC =       913.59836789
  Ewald energy   TEWEN  =    -13598.60011408
  -Hartree energ DENC   =     -4907.29253413
  -exchange      EXHF   =         0.00000000
  -V(xc)+E(xc)   XCENC  =       798.24343972
  PAW double counting   =     17411.43935117   -17796.62915821
  entropy T*S    EENTRO =         0.00000000
  eigenvalues    EBANDS =     -1956.53602625
  atomic energy  EATOM  =     19009.23125014
  Solvation  Ediel_sol  =         0.00000000
  ---------------------------------------------------
  free energy    TOTEN  =      -126.54542374 eV

  energy without entropy =     -126.54542374  energy(sigma->0) =     -126.54542374


--------------------------------------------------------------------------------------------------------




--------------------------------------- Iteration      1(   4)  ---------------------------------------


    EDDIAG:  cpu time   29.6368: real time   29.7361
     EDDAV:  cpu time   55.1393: real time   55.1457
 BZINTS: Fermi energy:  4.636375;168.000000 electrons
         Band energy:***********;  BLOECHL correction: -0.025064
       DOS:  cpu time    0.2776: real time    0.2775

 optimized coefficients for linear combined projectors, energy window      -5.00     10.00
 species Ca NT=   1 L=   0     0.479    -0.310
 species Ca NT=   1 L=   1     0.737    -0.706
 species Ca NT=   1 L=   2     0.919     0.915

 species Fe NT=   2 L=   1     0.095    -0.821
 species Fe NT=   2 L=   2     0.943     0.961
 species Fe NT=   2 L=   0     0.507     0.915

 species O  NT=   3 L=   0     0.882    -0.999
 species O  NT=   3 L=   1     0.852    -0.941




 total charge     

# of ion       s       p       d       tot
------------------------------------------
    1        2.001   5.868   0.279   8.149
    2        2.001   5.868   0.279   8.149
    3        2.001   5.868   0.279   8.149
    4        2.001   5.868   0.279   8.149
    5        0.298   6.386   5.961  12.645
    6        0.298   6.386   5.962  12.645
    7        0.371   6.548   6.014  12.933
    8        0.371   6.548   6.013  12.932
    9        1.562   3.405   0.000   4.967
   10        1.562   3.405   0.000   4.967
   11        1.562   3.405   0.000   4.967
   12        1.562   3.406   0.000   4.967
   13        1.562   3.404   0.000   4.966
   14        1.562   3.404   0.000   4.966
   15        1.562   3.404   0.000   4.966
   16        1.562   3.404   0.000   4.966
   17        1.563   3.415   0.000   4.979
   18        1.563   3.415   0.000   4.979
   19        1.563   3.415   0.000   4.979
   20        1.563   3.415   0.000   4.978
--------------------------------------------------
tot         28.089  90.242  25.067 143.399

    --------------------------------------------
      LOOP:  cpu time   84.6258: real time   84.7248

 eigenvalue-minimisations  : 77296
 total energy-change (2. order) :-0.1764522E+02  (-0.1732150E+02)
 number of electron     168.0000158 magnetization 
 augmentation part      168.0000158 magnetization 

 Free energy of the ion-electron system (eV)
  ---------------------------------------------------
  alpha Z        PSCENC =       913.59836789
  Ewald energy   TEWEN  =    -13598.60011408
  -Hartree energ DENC   =     -4907.29253413
  -exchange      EXHF   =         0.00000000
  -V(xc)+E(xc)   XCENC  =       798.24343972
  PAW double counting   =     17411.43935117   -17796.62915821
  entropy T*S    EENTRO =         0.00000000
  eigenvalues    EBANDS =     -1974.18124307
  atomic energy  EATOM  =     19009.23125014
  Solvation  Ediel_sol  =         0.00000000
  ---------------------------------------------------
  free energy    TOTEN  =      -144.19064057 eV

  energy without entropy =     -144.19064057  energy(sigma->0) =     -144.19064057


--------------------------------------------------------------------------------------------------------




--------------------------------------- Iteration      1(   5)  ---------------------------------------


    EDDIAG:  cpu time   29.2690: real time   29.3423
     EDDAV:  cpu time   64.9556: real time   64.9563
 BZINTS: Fermi energy:  4.631417;168.000000 electrons
         Band energy:***********;  BLOECHL correction: -0.025617
       DOS:  cpu time    0.2773: real time    0.2773

 optimized coefficients for linear combined projectors, energy window      -5.00     10.00
 species Ca NT=   1 L=   0     0.324    -0.322
 species Ca NT=   1 L=   1     0.742    -0.702
 species Ca NT=   1 L=   2     0.919     0.915

 species Fe NT=   2 L=   1     0.096    -0.821
 species Fe NT=   2 L=   2     0.943     0.961
 species Fe NT=   2 L=   0     0.507     0.915

 species O  NT=   3 L=   0     0.883    -0.999
 species O  NT=   3 L=   1     0.852    -0.941




 total charge     

# of ion       s       p       d       tot
------------------------------------------
    1        2.030   5.866   0.279   8.174
    2        2.030   5.866   0.279   8.174
    3        2.030   5.866   0.279   8.174
    4        2.030   5.866   0.279   8.174
    5        0.296   6.383   5.955  12.634
    6        0.296   6.383   5.953  12.633
    7        0.369   6.546   6.016  12.931
    8        0.369   6.546   6.016  12.931
    9        1.558   3.400   0.000   4.958
   10        1.558   3.400   0.000   4.958
   11        1.558   3.400   0.000   4.958
   12        1.558   3.400   0.000   4.958
   13        1.558   3.399   0.000   4.957
   14        1.558   3.399   0.000   4.957
   15        1.558   3.399   0.000   4.957
   16        1.558   3.399   0.000   4.957
   17        1.560   3.410   0.000   4.970
   18        1.560   3.410   0.000   4.970
   19        1.560   3.410   0.000   4.970
   20        1.560   3.410   0.000   4.970
--------------------------------------------------
tot         28.155  90.153  25.055 143.363

    --------------------------------------------
      LOOP:  cpu time   94.7418: real time   94.7967

 eigenvalue-minimisations  : 95824
 total energy-change (2. order) :-0.9010552E+00  (-0.8923105E+00)
 number of electron     168.0000158 magnetization 
 augmentation part      168.0000158 magnetization 

 Free energy of the ion-electron system (eV)
  ---------------------------------------------------
  alpha Z        PSCENC =       913.59836789
  Ewald energy   TEWEN  =    -13598.60011408
  -Hartree energ DENC   =     -4907.29253413
  -exchange      EXHF   =         0.00000000
  -V(xc)+E(xc)   XCENC  =       798.24343972
  PAW double counting   =     17411.43935117   -17796.62915821
  entropy T*S    EENTRO =         0.00000000
  eigenvalues    EBANDS =     -1975.08229827
  atomic energy  EATOM  =     19009.23125014
  Solvation  Ediel_sol  =         0.00000000
  ---------------------------------------------------
  free energy    TOTEN  =      -145.09169576 eV

  energy without entropy =     -145.09169576  energy(sigma->0) =     -145.09169576


--------------------------------------------------------------------------------------------------------




--------------------------------------- Iteration      1(   6)  ---------------------------------------


    EDDIAG:  cpu time   29.4856: real time   29.5226
     EDDAV:  cpu time   64.4024: real time   64.4948
 BZINTS: Fermi energy:  4.631377;168.000000 electrons
         Band energy:***********;  BLOECHL correction: -0.025620
       DOS:  cpu time    0.2950: real time    0.2950

 optimized coefficients for linear combined projectors, energy window      -5.00     10.00
 species Ca NT=   1 L=   0     0.322    -0.323
 species Ca NT=   1 L=   1     0.742    -0.702
 species Ca NT=   1 L=   2     0.919     0.915

 species Fe NT=   2 L=   1     0.096    -0.821
 species Fe NT=   2 L=   2     0.943     0.961
 species Fe NT=   2 L=   0     0.507     0.915

 species O  NT=   3 L=   0     0.883    -0.999
 species O  NT=   3 L=   1     0.852    -0.941




 total charge     

# of ion       s       p       d       tot
------------------------------------------
    1        2.029   5.866   0.279   8.174
    2        2.029   5.866   0.279   8.174
    3        2.029   5.866   0.279   8.174
    4        2.029   5.866   0.279   8.174
    5        0.296   6.383   5.955  12.634
    6        0.296   6.383   5.954  12.633
    7        0.369   6.546   6.016  12.931
    8        0.369   6.546   6.016  12.931
    9        1.558   3.400   0.000   4.958
   10        1.558   3.400   0.000   4.958
   11        1.558   3.400   0.000   4.958
   12        1.558   3.400   0.000   4.958
   13        1.558   3.399   0.000   4.957
   14        1.558   3.399   0.000   4.957
   15        1.558   3.399   0.000   4.957
   16        1.558   3.399   0.000   4.957
   17        1.560   3.410   0.000   4.970
   18        1.560   3.410   0.000   4.970
   19        1.560   3.410   0.000   4.970
   20        1.560   3.410   0.000   4.970
--------------------------------------------------
tot         28.152  90.155  25.056 143.363

    --------------------------------------------
      LOOP:  cpu time   95.9371: real time   96.0807

 eigenvalue-minimisations  : 76368
 total energy-change (2. order) :-0.9515348E-02  (-0.9512370E-02)
 number of electron     168.0000158 magnetization 
 augmentation part      168.0000158 magnetization 

 Free energy of the ion-electron system (eV)
  ---------------------------------------------------
  alpha Z        PSCENC =       913.59836789
  Ewald energy   TEWEN  =    -13598.60011408
  -Hartree energ DENC   =     -4907.29253413
  -exchange      EXHF   =         0.00000000
  -V(xc)+E(xc)   XCENC  =       798.24343972
  PAW double counting   =     17411.43935117   -17796.62915821
  entropy T*S    EENTRO =         0.00000000
  eigenvalues    EBANDS =     -1975.09181361
  atomic energy  EATOM  =     19009.23125014
  Solvation  Ediel_sol  =         0.00000000
  ---------------------------------------------------
  free energy    TOTEN  =      -145.10121111 eV

  energy without entropy =     -145.10121111  energy(sigma->0) =     -145.10121111


--------------------------------------------------------------------------------------------------------




--------------------------------------- Iteration      1(   7)  ---------------------------------------


    EDDIAG:  cpu time   31.3965: real time   31.4580
     EDDAV:  cpu time   62.7867: real time   63.0045
 BZINTS: Fermi energy:  4.631377;168.000000 electrons
         Band energy:***********;  BLOECHL correction: -0.025620
       DOS:  cpu time    0.2966: real time    0.2966

 optimized coefficients for linear combined projectors, energy window      -5.00     10.00
 species Ca NT=   1 L=   0     0.321    -0.323
 species Ca NT=   1 L=   1     0.741    -0.702
 species Ca NT=   1 L=   2     0.919     0.915

 species Fe NT=   2 L=   1     0.096    -0.821
 species Fe NT=   2 L=   2     0.943     0.961
 species Fe NT=   2 L=   0     0.507     0.915

 species O  NT=   3 L=   0     0.883    -0.999
 species O  NT=   3 L=   1     0.852    -0.941




 total charge     

# of ion       s       p       d       tot
------------------------------------------
    1        2.029   5.866   0.279   8.174
    2        2.029   5.866   0.279   8.174
    3        2.029   5.866   0.279   8.174
    4        2.029   5.866   0.279   8.174
    5        0.296   6.383   5.955  12.634
    6        0.296   6.383   5.954  12.633
    7        0.369   6.546   6.016  12.931
    8        0.369   6.546   6.016  12.931
    9        1.558   3.400   0.000   4.958
   10        1.558   3.400   0.000   4.958
   11        1.558   3.400   0.000   4.958
   12        1.558   3.400   0.000   4.958
   13        1.558   3.399   0.000   4.957
   14        1.558   3.399   0.000   4.957
   15        1.558   3.399   0.000   4.957
   16        1.558   3.399   0.000   4.957
   17        1.560   3.410   0.000   4.970
   18        1.560   3.410   0.000   4.970
   19        1.560   3.410   0.000   4.970
   20        1.560   3.410   0.000   4.970
--------------------------------------------------
tot         28.152  90.156  25.056 143.364

    --------------------------------------------
