Automatically generated mesh
     405
Reciprocal lattice
    0.00000000000000    0.00000000000000    0.00000000000000             1
    0.11111111111112    0.00000000000000    0.00000000000000             1
    0.22222222222222    0.00000000000000    0.00000000000000             1
    0.33333333333334    0.00000000000000    0.00000000000000             1
    0.44444444444444    0.00000000000000    0.00000000000000             1
   -0.44444444444444    0.00000000000000    0.00000000000000             1
   -0.33333333333333    0.00000000000000    0.00000000000000             1
   -0.22222222222222    0.00000000000000    0.00000000000000             1
   -0.11111111111111    0.00000000000000    0.00000000000000             1
    0.00000000000000    0.11111111111112    0.00000000000000             1
    0.11111111111112    0.11111111111112    0.00000000000000             1
    0.22222222222222    0.11111111111112    0.00000000000000             1
    0.33333333333334    0.11111111111112    0.00000000000000             1
    0.44444444444444    0.11111111111112    0.00000000000000             1
   -0.44444444444444    0.11111111111112    0.00000000000000             1
   -0.33333333333333    0.11111111111112    0.00000000000000             1
   -0.22222222222222    0.11111111111112    0.00000000000000             1
   -0.11111111111111    0.11111111111112    0.00000000000000             1
    0.00000000000000    0.22222222222222    0.00000000000000             1
    0.11111111111112    0.22222222222222    0.00000000000000             1
    0.22222222222222    0.22222222222222    0.00000000000000             1
    0.33333333333334    0.22222222222222    0.00000000000000             1
    0.44444444444444    0.22222222222222    0.00000000000000             1
   -0.44444444444444    0.22222222222222    0.00000000000000             1
   -0.33333333333333    0.22222222222222    0.00000000000000             1
   -0.22222222222222    0.22222222222222    0.00000000000000             1
   -0.11111111111111    0.22222222222222    0.00000000000000             1
    0.00000000000000    0.33333333333334    0.00000000000000             1
    0.11111111111112    0.33333333333334    0.00000000000000             1
    0.22222222222222    0.33333333333334    0.00000000000000             1
    0.33333333333334    0.33333333333334    0.00000000000000             1
    0.44444444444444    0.33333333333334    0.00000000000000             1
   -0.44444444444444    0.33333333333334    0.00000000000000             1
   -0.33333333333333    0.33333333333334    0.00000000000000             1
   -0.22222222222222    0.33333333333334    0.00000000000000             1
   -0.11111111111111    0.33333333333334    0.00000000000000             1
    0.00000000000000    0.44444444444444    0.00000000000000             1
    0.11111111111112    0.44444444444444    0.00000000000000             1
    0.22222222222222    0.44444444444444    0.00000000000000             1
    0.33333333333334    0.44444444444444    0.00000000000000             1
    0.44444444444444    0.44444444444444    0.00000000000000             1
   -0.44444444444444    0.44444444444444    0.00000000000000             1
   -0.33333333333333    0.44444444444444    0.00000000000000             1
   -0.22222222222222    0.44444444444444    0.00000000000000             1
   -0.11111111111111    0.44444444444444    0.00000000000000             1
    0.00000000000000   -0.44444444444444    0.00000000000000             1
    0.11111111111112   -0.44444444444444    0.00000000000000             1
    0.22222222222222   -0.44444444444444    0.00000000000000             1
    0.33333333333334   -0.44444444444444    0.00000000000000             1
    0.44444444444444   -0.44444444444444    0.00000000000000             1
   -0.44444444444444   -0.44444444444444    0.00000000000000             1
   -0.33333333333333   -0.44444444444444    0.00000000000000             1
   -0.22222222222222   -0.44444444444444    0.00000000000000             1
   -0.11111111111111   -0.44444444444444    0.00000000000000             1
    0.00000000000000   -0.33333333333333    0.00000000000000             1
    0.11111111111112   -0.33333333333333    0.00000000000000             1
    0.22222222222222   -0.33333333333333    0.00000000000000             1
    0.33333333333334   -0.33333333333333    0.00000000000000             1
    0.44444444444444   -0.33333333333333    0.00000000000000             1
   -0.44444444444444   -0.33333333333333    0.00000000000000             1
   -0.33333333333333   -0.33333333333333    0.00000000000000             1
   -0.22222222222222   -0.33333333333333    0.00000000000000             1
   -0.11111111111111   -0.33333333333333    0.00000000000000             1
    0.00000000000000   -0.22222222222222    0.00000000000000             1
    0.11111111111112   -0.22222222222222    0.00000000000000             1
    0.22222222222222   -0.22222222222222    0.00000000000000             1
    0.33333333333334   -0.22222222222222    0.00000000000000             1
    0.44444444444444   -0.22222222222222    0.00000000000000             1
   -0.44444444444444   -0.22222222222222    0.00000000000000             1
   -0.33333333333333   -0.22222222222222    0.00000000000000             1
   -0.22222222222222   -0.22222222222222    0.00000000000000             1
   -0.11111111111111   -0.22222222222222    0.00000000000000             1
    0.00000000000000   -0.11111111111111    0.00000000000000             1
    0.11111111111112   -0.11111111111111    0.00000000000000             1
    0.22222222222222   -0.11111111111111    0.00000000000000             1
    0.33333333333334   -0.11111111111111    0.00000000000000             1
    0.44444444444444   -0.11111111111111    0.00000000000000             1
   -0.44444444444444   -0.11111111111111    0.00000000000000             1
   -0.33333333333333   -0.11111111111111    0.00000000000000             1
   -0.22222222222222   -0.11111111111111    0.00000000000000             1
   -0.11111111111111   -0.11111111111111    0.00000000000000             1
    0.00000000000000    0.00000000000000    0.20000000000000             1
    0.11111111111112    0.00000000000000    0.20000000000000             1
    0.22222222222222    0.00000000000000    0.20000000000000             1
    0.33333333333334    0.00000000000000    0.20000000000000             1
    0.44444444444444    0.00000000000000    0.20000000000000             1
   -0.44444444444444    0.00000000000000    0.20000000000000             1
   -0.33333333333333    0.00000000000000    0.20000000000000             1
   -0.22222222222222    0.00000000000000    0.20000000000000             1
   -0.11111111111111    0.00000000000000    0.20000000000000             1
    0.00000000000000    0.11111111111112    0.20000000000000             1
    0.11111111111112    0.11111111111112    0.20000000000000             1
    0.22222222222222    0.11111111111112    0.20000000000000             1
    0.33333333333334    0.11111111111112    0.20000000000000             1
    0.44444444444444    0.11111111111112    0.20000000000000             1
   -0.44444444444444    0.11111111111112    0.20000000000000             1
   -0.33333333333333    0.11111111111112    0.20000000000000             1
   -0.22222222222222    0.11111111111112    0.20000000000000             1
   -0.11111111111111    0.11111111111112    0.20000000000000             1
    0.00000000000000    0.22222222222222    0.20000000000000             1
    0.11111111111112    0.22222222222222    0.20000000000000             1
    0.22222222222222    0.22222222222222    0.20000000000000             1
    0.33333333333334    0.22222222222222    0.20000000000000             1
    0.44444444444444    0.22222222222222    0.20000000000000             1
   -0.44444444444444    0.22222222222222    0.20000000000000             1
   -0.33333333333333    0.22222222222222    0.20000000000000             1
   -0.22222222222222    0.22222222222222    0.20000000000000             1
   -0.11111111111111    0.22222222222222    0.20000000000000             1
    0.00000000000000    0.33333333333334    0.20000000000000             1
    0.11111111111112    0.33333333333334    0.20000000000000             1
    0.22222222222222    0.33333333333334    0.20000000000000             1
    0.33333333333334    0.33333333333334    0.20000000000000             1
    0.44444444444444    0.33333333333334    0.20000000000000             1
   -0.44444444444444    0.33333333333334    0.20000000000000             1
   -0.33333333333333    0.33333333333334    0.20000000000000             1
   -0.22222222222222    0.33333333333334    0.20000000000000             1
   -0.11111111111111    0.33333333333334    0.20000000000000             1
    0.00000000000000    0.44444444444444    0.20000000000000             1
    0.11111111111112    0.44444444444444    0.20000000000000             1
    0.22222222222222    0.44444444444444    0.20000000000000             1
    0.33333333333334    0.44444444444444    0.20000000000000             1
    0.44444444444444    0.44444444444444    0.20000000000000             1
   -0.44444444444444    0.44444444444444    0.20000000000000             1
   -0.33333333333333    0.44444444444444    0.20000000000000             1
   -0.22222222222222    0.44444444444444    0.20000000000000             1
   -0.11111111111111    0.44444444444444    0.20000000000000             1
    0.00000000000000   -0.44444444444444    0.20000000000000             1
    0.11111111111112   -0.44444444444444    0.20000000000000             1
    0.22222222222222   -0.44444444444444    0.20000000000000             1
    0.33333333333334   -0.44444444444444    0.20000000000000             1
    0.44444444444444   -0.44444444444444    0.20000000000000             1
   -0.44444444444444   -0.44444444444444    0.20000000000000             1
   -0.33333333333333   -0.44444444444444    0.20000000000000             1
   -0.22222222222222   -0.44444444444444    0.20000000000000             1
   -0.11111111111111   -0.44444444444444    0.20000000000000             1
    0.00000000000000   -0.33333333333333    0.20000000000000             1
    0.11111111111112   -0.33333333333333    0.20000000000000             1
    0.22222222222222   -0.33333333333333    0.20000000000000             1
    0.33333333333334   -0.33333333333333    0.20000000000000             1
    0.44444444444444   -0.33333333333333    0.20000000000000             1
   -0.44444444444444   -0.33333333333333    0.20000000000000             1
   -0.33333333333333   -0.33333333333333    0.20000000000000             1
   -0.22222222222222   -0.33333333333333    0.20000000000000             1
   -0.11111111111111   -0.33333333333333    0.20000000000000             1
    0.00000000000000   -0.22222222222222    0.20000000000000             1
    0.11111111111112   -0.22222222222222    0.20000000000000             1
    0.22222222222222   -0.22222222222222    0.20000000000000             1
    0.33333333333334   -0.22222222222222    0.20000000000000             1
    0.44444444444444   -0.22222222222222    0.20000000000000             1
   -0.44444444444444   -0.22222222222222    0.20000000000000             1
   -0.33333333333333   -0.22222222222222    0.20000000000000             1
   -0.22222222222222   -0.22222222222222    0.20000000000000             1
   -0.11111111111111   -0.22222222222222    0.20000000000000             1
    0.00000000000000   -0.11111111111111    0.20000000000000             1
    0.11111111111112   -0.11111111111111    0.20000000000000             1
    0.22222222222222   -0.11111111111111    0.20000000000000             1
    0.33333333333334   -0.11111111111111    0.20000000000000             1
    0.44444444444444   -0.11111111111111    0.20000000000000             1
   -0.44444444444444   -0.11111111111111    0.20000000000000             1
   -0.33333333333333   -0.11111111111111    0.20000000000000             1
   -0.22222222222222   -0.11111111111111    0.20000000000000             1
   -0.11111111111111   -0.11111111111111    0.20000000000000             1
    0.00000000000000    0.00000000000000    0.40000000000000             1
    0.11111111111112    0.00000000000000    0.40000000000000             1
    0.22222222222222    0.00000000000000    0.40000000000000             1
    0.33333333333334    0.00000000000000    0.40000000000000             1
    0.44444444444444    0.00000000000000    0.40000000000000             1
   -0.44444444444444    0.00000000000000    0.40000000000000             1
   -0.33333333333333    0.00000000000000    0.40000000000000             1
   -0.22222222222222    0.00000000000000    0.40000000000000             1
   -0.11111111111111    0.00000000000000    0.40000000000000             1
    0.00000000000000    0.11111111111112    0.40000000000000             1
    0.11111111111112    0.11111111111112    0.40000000000000             1
    0.22222222222222    0.11111111111112    0.40000000000000             1
    0.33333333333334    0.11111111111112    0.40000000000000             1
    0.44444444444444    0.11111111111112    0.40000000000000             1
   -0.44444444444444    0.11111111111112    0.40000000000000             1
   -0.33333333333333    0.11111111111112    0.40000000000000             1
   -0.22222222222222    0.11111111111112    0.40000000000000             1
   -0.11111111111111    0.11111111111112    0.40000000000000             1
    0.00000000000000    0.22222222222222    0.40000000000000             1
    0.11111111111112    0.22222222222222    0.40000000000000             1
    0.22222222222222    0.22222222222222    0.40000000000000             1
    0.33333333333334    0.22222222222222    0.40000000000000             1
    0.44444444444444    0.22222222222222    0.40000000000000             1
   -0.44444444444444    0.22222222222222    0.40000000000000             1
   -0.33333333333333    0.22222222222222    0.40000000000000             1
   -0.22222222222222    0.22222222222222    0.40000000000000             1
   -0.11111111111111    0.22222222222222    0.40000000000000             1
    0.00000000000000    0.33333333333334    0.40000000000000             1
    0.11111111111112    0.33333333333334    0.40000000000000             1
    0.22222222222222    0.33333333333334    0.40000000000000             1
    0.33333333333334    0.33333333333334    0.40000000000000             1
    0.44444444444444    0.33333333333334    0.40000000000000             1
   -0.44444444444444    0.33333333333334    0.40000000000000             1
   -0.33333333333333    0.33333333333334    0.40000000000000             1
   -0.22222222222222    0.33333333333334    0.40000000000000             1
   -0.11111111111111    0.33333333333334    0.40000000000000             1
    0.00000000000000    0.44444444444444    0.40000000000000             1
    0.11111111111112    0.44444444444444    0.40000000000000             1
    0.22222222222222    0.44444444444444    0.40000000000000             1
    0.33333333333334    0.44444444444444    0.40000000000000             1
    0.44444444444444    0.44444444444444    0.40000000000000             1
   -0.44444444444444    0.44444444444444    0.40000000000000             1
   -0.33333333333333    0.44444444444444    0.40000000000000             1
   -0.22222222222222    0.44444444444444    0.40000000000000             1
   -0.11111111111111    0.44444444444444    0.40000000000000             1
    0.00000000000000   -0.44444444444444    0.40000000000000             1
    0.11111111111112   -0.44444444444444    0.40000000000000             1
    0.22222222222222   -0.44444444444444    0.40000000000000             1
    0.33333333333334   -0.44444444444444    0.40000000000000             1
    0.44444444444444   -0.44444444444444    0.40000000000000             1
   -0.44444444444444   -0.44444444444444    0.40000000000000             1
   -0.33333333333333   -0.44444444444444    0.40000000000000             1
   -0.22222222222222   -0.44444444444444    0.40000000000000             1
   -0.11111111111111   -0.44444444444444    0.40000000000000             1
    0.00000000000000   -0.33333333333333    0.40000000000000             1
    0.11111111111112   -0.33333333333333    0.40000000000000             1
    0.22222222222222   -0.33333333333333    0.40000000000000             1
    0.33333333333334   -0.33333333333333    0.40000000000000             1
    0.44444444444444   -0.33333333333333    0.40000000000000             1
   -0.44444444444444   -0.33333333333333    0.40000000000000             1
   -0.33333333333333   -0.33333333333333    0.40000000000000             1
   -0.22222222222222   -0.33333333333333    0.40000000000000             1
   -0.11111111111111   -0.33333333333333    0.40000000000000             1
    0.00000000000000   -0.22222222222222    0.40000000000000             1
    0.11111111111112   -0.22222222222222    0.40000000000000             1
    0.22222222222222   -0.22222222222222    0.40000000000000             1
    0.33333333333334   -0.22222222222222    0.40000000000000             1
    0.44444444444444   -0.22222222222222    0.40000000000000             1
   -0.44444444444444   -0.22222222222222    0.40000000000000             1
   -0.33333333333333   -0.22222222222222    0.40000000000000             1
   -0.22222222222222   -0.22222222222222    0.40000000000000             1
   -0.11111111111111   -0.22222222222222    0.40000000000000             1
    0.00000000000000   -0.11111111111111    0.40000000000000             1
    0.11111111111112   -0.11111111111111    0.40000000000000             1
    0.22222222222222   -0.11111111111111    0.40000000000000             1
    0.33333333333334   -0.11111111111111    0.40000000000000             1
    0.44444444444444   -0.11111111111111    0.40000000000000             1
   -0.44444444444444   -0.11111111111111    0.40000000000000             1
   -0.33333333333333   -0.11111111111111    0.40000000000000             1
   -0.22222222222222   -0.11111111111111    0.40000000000000             1
   -0.11111111111111   -0.11111111111111    0.40000000000000             1
    0.00000000000000    0.00000000000000   -0.40000000000000             1
    0.11111111111112    0.00000000000000   -0.40000000000000             1
    0.22222222222222    0.00000000000000   -0.40000000000000             1
    0.33333333333334    0.00000000000000   -0.40000000000000             1
    0.44444444444444    0.00000000000000   -0.40000000000000             1
   -0.44444444444444    0.00000000000000   -0.40000000000000             1
   -0.33333333333333    0.00000000000000   -0.40000000000000             1
   -0.22222222222222    0.00000000000000   -0.40000000000000             1
   -0.11111111111111    0.00000000000000   -0.40000000000000             1
    0.00000000000000    0.11111111111112   -0.40000000000000             1
    0.11111111111112    0.11111111111112   -0.40000000000000             1
    0.22222222222222    0.11111111111112   -0.40000000000000             1
    0.33333333333334    0.11111111111112   -0.40000000000000             1
    0.44444444444444    0.11111111111112   -0.40000000000000             1
   -0.44444444444444    0.11111111111112   -0.40000000000000             1
   -0.33333333333333    0.11111111111112   -0.40000000000000             1
   -0.22222222222222    0.11111111111112   -0.40000000000000             1
   -0.11111111111111    0.11111111111112   -0.40000000000000             1
    0.00000000000000    0.22222222222222   -0.40000000000000             1
    0.11111111111112    0.22222222222222   -0.40000000000000             1
    0.22222222222222    0.22222222222222   -0.40000000000000             1
    0.33333333333334    0.22222222222222   -0.40000000000000             1
    0.44444444444444    0.22222222222222   -0.40000000000000             1
   -0.44444444444444    0.22222222222222   -0.40000000000000             1
   -0.33333333333333    0.22222222222222   -0.40000000000000             1
   -0.22222222222222    0.22222222222222   -0.40000000000000             1
   -0.11111111111111    0.22222222222222   -0.40000000000000             1
    0.00000000000000    0.33333333333334   -0.40000000000000             1
    0.11111111111112    0.33333333333334   -0.40000000000000             1
    0.22222222222222    0.33333333333334   -0.40000000000000             1
    0.33333333333334    0.33333333333334   -0.40000000000000             1
    0.44444444444444    0.33333333333334   -0.40000000000000             1
   -0.44444444444444    0.33333333333334   -0.40000000000000             1
   -0.33333333333333    0.33333333333334   -0.40000000000000             1
   -0.22222222222222    0.33333333333334   -0.40000000000000             1
   -0.11111111111111    0.33333333333334   -0.40000000000000             1
    0.00000000000000    0.44444444444444   -0.40000000000000             1
    0.11111111111112    0.44444444444444   -0.40000000000000             1
    0.22222222222222    0.44444444444444   -0.40000000000000             1
    0.33333333333334    0.44444444444444   -0.40000000000000             1
    0.44444444444444    0.44444444444444   -0.40000000000000             1
   -0.44444444444444    0.44444444444444   -0.40000000000000             1
   -0.33333333333333    0.44444444444444   -0.40000000000000             1
   -0.22222222222222    0.44444444444444   -0.40000000000000             1
   -0.11111111111111    0.44444444444444   -0.40000000000000             1
    0.00000000000000   -0.44444444444444   -0.40000000000000             1
    0.11111111111112   -0.44444444444444   -0.40000000000000             1
    0.22222222222222   -0.44444444444444   -0.40000000000000             1
    0.33333333333334   -0.44444444444444   -0.40000000000000             1
    0.44444444444444   -0.44444444444444   -0.40000000000000             1
   -0.44444444444444   -0.44444444444444   -0.40000000000000             1
   -0.33333333333333   -0.44444444444444   -0.40000000000000             1
   -0.22222222222222   -0.44444444444444   -0.40000000000000             1
   -0.11111111111111   -0.44444444444444   -0.40000000000000             1
    0.00000000000000   -0.33333333333333   -0.40000000000000             1
    0.11111111111112   -0.33333333333333   -0.40000000000000             1
    0.22222222222222   -0.33333333333333   -0.40000000000000             1
    0.33333333333334   -0.33333333333333   -0.40000000000000             1
    0.44444444444444   -0.33333333333333   -0.40000000000000             1
   -0.44444444444444   -0.33333333333333   -0.40000000000000             1
   -0.33333333333333   -0.33333333333333   -0.40000000000000             1
   -0.22222222222222   -0.33333333333333   -0.40000000000000             1
   -0.11111111111111   -0.33333333333333   -0.40000000000000             1
    0.00000000000000   -0.22222222222222   -0.40000000000000             1
    0.11111111111112   -0.22222222222222   -0.40000000000000             1
    0.22222222222222   -0.22222222222222   -0.40000000000000             1
    0.33333333333334   -0.22222222222222   -0.40000000000000             1
    0.44444444444444   -0.22222222222222   -0.40000000000000             1
   -0.44444444444444   -0.22222222222222   -0.40000000000000             1
   -0.33333333333333   -0.22222222222222   -0.40000000000000             1
   -0.22222222222222   -0.22222222222222   -0.40000000000000             1
   -0.11111111111111   -0.22222222222222   -0.40000000000000             1
    0.00000000000000   -0.11111111111111   -0.40000000000000             1
    0.11111111111112   -0.11111111111111   -0.40000000000000             1
    0.22222222222222   -0.11111111111111   -0.40000000000000             1
    0.33333333333334   -0.11111111111111   -0.40000000000000             1
    0.44444444444444   -0.11111111111111   -0.40000000000000             1
   -0.44444444444444   -0.11111111111111   -0.40000000000000             1
   -0.33333333333333   -0.11111111111111   -0.40000000000000             1
   -0.22222222222222   -0.11111111111111   -0.40000000000000             1
   -0.11111111111111   -0.11111111111111   -0.40000000000000             1
    0.00000000000000    0.00000000000000   -0.20000000000000             1
    0.11111111111112    0.00000000000000   -0.20000000000000             1
    0.22222222222222    0.00000000000000   -0.20000000000000             1
    0.33333333333334    0.00000000000000   -0.20000000000000             1
    0.44444444444444    0.00000000000000   -0.20000000000000             1
   -0.44444444444444    0.00000000000000   -0.20000000000000             1
   -0.33333333333333    0.00000000000000   -0.20000000000000             1
   -0.22222222222222    0.00000000000000   -0.20000000000000             1
   -0.11111111111111    0.00000000000000   -0.20000000000000             1
    0.00000000000000    0.11111111111112   -0.20000000000000             1
    0.11111111111112    0.11111111111112   -0.20000000000000             1
    0.22222222222222    0.11111111111112   -0.20000000000000             1
    0.33333333333334    0.11111111111112   -0.20000000000000             1
    0.44444444444444    0.11111111111112   -0.20000000000000             1
   -0.44444444444444    0.11111111111112   -0.20000000000000             1
   -0.33333333333333    0.11111111111112   -0.20000000000000             1
   -0.22222222222222    0.11111111111112   -0.20000000000000             1
   -0.11111111111111    0.11111111111112   -0.20000000000000             1
    0.00000000000000    0.22222222222222   -0.20000000000000             1
    0.11111111111112    0.22222222222222   -0.20000000000000             1
    0.22222222222222    0.22222222222222   -0.20000000000000             1
    0.33333333333334    0.22222222222222   -0.20000000000000             1
    0.44444444444444    0.22222222222222   -0.20000000000000             1
   -0.44444444444444    0.22222222222222   -0.20000000000000             1
   -0.33333333333333    0.22222222222222   -0.20000000000000             1
   -0.22222222222222    0.22222222222222   -0.20000000000000             1
   -0.11111111111111    0.22222222222222   -0.20000000000000             1
    0.00000000000000    0.33333333333334   -0.20000000000000             1
    0.11111111111112    0.33333333333334   -0.20000000000000             1
    0.22222222222222    0.33333333333334   -0.20000000000000             1
    0.33333333333334    0.33333333333334   -0.20000000000000             1
    0.44444444444444    0.33333333333334   -0.20000000000000             1
   -0.44444444444444    0.33333333333334   -0.20000000000000             1
   -0.33333333333333    0.33333333333334   -0.20000000000000             1
   -0.22222222222222    0.33333333333334   -0.20000000000000             1
   -0.11111111111111    0.33333333333334   -0.20000000000000             1
    0.00000000000000    0.44444444444444   -0.20000000000000             1
    0.11111111111112    0.44444444444444   -0.20000000000000             1
    0.22222222222222    0.44444444444444   -0.20000000000000             1
    0.33333333333334    0.44444444444444   -0.20000000000000             1
    0.44444444444444    0.44444444444444   -0.20000000000000             1
   -0.44444444444444    0.44444444444444   -0.20000000000000             1
   -0.33333333333333    0.44444444444444   -0.20000000000000             1
   -0.22222222222222    0.44444444444444   -0.20000000000000             1
   -0.11111111111111    0.44444444444444   -0.20000000000000             1
    0.00000000000000   -0.44444444444444   -0.20000000000000             1
    0.11111111111112   -0.44444444444444   -0.20000000000000             1
    0.22222222222222   -0.44444444444444   -0.20000000000000             1
    0.33333333333334   -0.44444444444444   -0.20000000000000             1
    0.44444444444444   -0.44444444444444   -0.20000000000000             1
   -0.44444444444444   -0.44444444444444   -0.20000000000000             1
   -0.33333333333333   -0.44444444444444   -0.20000000000000             1
   -0.22222222222222   -0.44444444444444   -0.20000000000000             1
   -0.11111111111111   -0.44444444444444   -0.20000000000000             1
    0.00000000000000   -0.33333333333333   -0.20000000000000             1
    0.11111111111112   -0.33333333333333   -0.20000000000000             1
    0.22222222222222   -0.33333333333333   -0.20000000000000             1
    0.33333333333334   -0.33333333333333   -0.20000000000000             1
    0.44444444444444   -0.33333333333333   -0.20000000000000             1
   -0.44444444444444   -0.33333333333333   -0.20000000000000             1
   -0.33333333333333   -0.33333333333333   -0.20000000000000             1
   -0.22222222222222   -0.33333333333333   -0.20000000000000             1
   -0.11111111111111   -0.33333333333333   -0.20000000000000             1
    0.00000000000000   -0.22222222222222   -0.20000000000000             1
    0.11111111111112   -0.22222222222222   -0.20000000000000             1
    0.22222222222222   -0.22222222222222   -0.20000000000000             1
    0.33333333333334   -0.22222222222222   -0.20000000000000             1
    0.44444444444444   -0.22222222222222   -0.20000000000000             1
   -0.44444444444444   -0.22222222222222   -0.20000000000000             1
   -0.33333333333333   -0.22222222222222   -0.20000000000000             1
   -0.22222222222222   -0.22222222222222   -0.20000000000000             1
   -0.11111111111111   -0.22222222222222   -0.20000000000000             1
    0.00000000000000   -0.11111111111111   -0.20000000000000             1
    0.11111111111112   -0.11111111111111   -0.20000000000000             1
    0.22222222222222   -0.11111111111111   -0.20000000000000             1