 vasp.5.4.4.18Apr17-6-g9f103f2a35 (build Dec 17 2021 11:40:50) complex           
 executed on             LinuxIFC date 2022.02.21  17:25:39
 running on   32 total cores
 distrk:  each k-point on   32 cores,    1 groups
 distr:  one band on NCORES_PER_BAND=   4 cores,    8 groups


--------------------------------------------------------------------------------------------------------


 INCAR:
 POTCAR:    PAW_PBE Pr_3 07Sep2000                
 POTCAR:    PAW_PBE Ni_pv 06Sep2000               
 POTCAR:    PAW_PBE O 08Apr2002                   
 POTCAR:    PAW_PBE Pr_3 07Sep2000                
   VRHFIN =Pr : [core=Xe4]                                                      
   LEXCH  = PE                                                                  
   EATOM  =   912.8502 eV,   67.0926 Ry                                         
                                                                                
   TITEL  = PAW_PBE Pr_3 07Sep2000                                              
   LULTRA =        F    use ultrasoft PP ?                                      
   IUNSCR =        1    unscreen: 0-lin 1-nonlin 2-no                           
   RPACOR =    2.400    partial core radius                                     
   POMASS =  140.907; ZVAL   =   11.000    mass and valenz                      
   RCORE  =    2.800    outmost cutoff radius                                   
   RWIGS  =    3.100; RWIGS  =    1.640    wigner-seitz radius (au A)           
   ENMAX  =  181.719; ENMIN  =  136.289 eV                                      
   RCLOC  =    2.419    cutoff for local pot                                    
   LCOR   =        T    correct aug charges                                     
   LPAW   =        T    paw PP                                                  
   EAUG   =  303.718                                                            
   DEXC   =    0.000                                                            
   RMAX   =    2.867    core radius for proj-oper                               
   RAUG   =    1.300    factor for augmentation sphere                          
   RDEP   =    2.816    radius for radial grids                                 
   RDEPT  =    2.395    core radius for aug-charge                              
                                                                                
   Atomic configuration                                                         
   14 entries                                                                   
     n  l   j            E        occ.                                          
     1  0  0.50    -41810.3934   2.0000                                         
     2  0  0.50     -6731.1418   2.0000                                         
     2  1  1.50     -6022.4876   6.0000                                         
     3  0  0.50     -1458.2043   2.0000                                         
     3  1  1.50     -1233.8862   6.0000                                         
     3  2  2.50      -919.2566  10.0000                                         
     4  0  0.50      -295.2681   2.0000                                         
     4  1  1.50      -221.8430   6.0000                                         
     4  2  2.50      -116.8418  10.0000                                         
     4  3  2.50        -6.2311   2.0000                                         
     5  0  0.50       -42.1589   2.0000                                         
     6  0  0.50        -3.8068   2.0000                                         
     5  1  1.50       -23.9655   6.0000                                         
     5  2  2.50        -3.0008   1.0000                                         
   Description                                                                  
     l       E           TYP  RCUT    TYP  RCUT                                 
     0    -42.1589422     23  2.800                                             
     0     -3.8068346     23  2.800                                             
     1    -23.9655307     23  2.800                                             
     1     13.6058260     23  2.800                                             
     2     -3.0008139     23  2.800                                             
     2     -0.1733532     23  2.800                                             
  local pseudopotential read in
  partial core-charges read in
  partial kinetic energy density read in
  atomic valenz-charges read in
  non local Contribution for L=           0  read in
    real space projection operators read in
  non local Contribution for L=           0  read in
    real space projection operators read in
  non local Contribution for L=           1  read in
    real space projection operators read in
  non local Contribution for L=           1  read in
    real space projection operators read in
  non local Contribution for L=           2  read in
    real space projection operators read in
  non local Contribution for L=           2  read in
    real space projection operators read in
    PAW grid and wavefunctions read in

   number of l-projection  operators is LMAX  =           6
   number of lm-projection operators is LMMAX =          18

 POTCAR:    PAW_PBE Ni_pv 06Sep2000               
   VRHFIN =Ni:                                                                  
   LEXCH  = PE                                                                  
   EATOM  =  3501.1230 eV,  257.3253 Ry                                         
                                                                                
   TITEL  = PAW_PBE Ni_pv 06Sep2000                                             
   LULTRA =        F    use ultrasoft PP ?                                      
   IUNSCR =        1    unscreen: 0-lin 1-nonlin 2-no                           
   RPACOR =    1.500    partial core radius                                     
   POMASS =   58.690; ZVAL   =   16.000    mass and valenz                      
   RCORE  =    2.000    outmost cutoff radius                                   
   RWIGS  =    2.000; RWIGS  =    1.058    wigner-seitz radius (au A)           
   ENMAX  =  367.986; ENMIN  =  275.989 eV                                      
   RCLOC  =    1.301    cutoff for local pot                                    
   LCOR   =        T    correct aug charges                                     
   LPAW   =        T    paw PP                                                  
   EAUG   =  703.443                                                            
   DEXC   =    0.000                                                            
   RMAX   =    2.041    core radius for proj-oper                               
   RAUG   =    1.300    factor for augmentation sphere                          
   RDEP   =    2.103    radius for radial grids                                 
   RDEPT  =    1.618    core radius for aug-charge                              
                                                                                
   Atomic configuration                                                         
    8 entries                                                                   
     n  l   j            E        occ.                                          
     1  0  0.50     -8206.4253   2.0000                                         
     2  0  0.50      -976.1748   2.0000                                         
     2  1  1.50      -839.0571   6.0000                                         
     3  0  0.50      -105.9991   2.0000                                         
     3  1  1.50       -66.4603   6.0000                                         
     3  2  2.50        -4.6458   9.0000                                         
     4  0  0.50        -4.4926   1.0000                                         
     4  3  2.50        -1.3606   0.0000                                         
   Description                                                                  
     l       E           TYP  RCUT    TYP  RCUT                                 
     1    -66.4602962     23  1.700                                             
     1     -1.3605826     23  1.700                                             
     2     -4.6457867     23  2.000                                             
     2     -6.0063693     23  2.000                                             
     0     -4.4925576     23  1.900                                             
     0     16.3626226     23  1.900                                             
  local pseudopotential read in
  partial core-charges read in
  partial kinetic energy density read in
  atomic valenz-charges read in
  non local Contribution for L=           1  read in
    real space projection operators read in
  non local Contribution for L=           1  read in
    real space projection operators read in
  non local Contribution for L=           2  read in
    real space projection operators read in
  non local Contribution for L=           2  read in
    real space projection operators read in
  non local Contribution for L=           0  read in
    real space projection operators read in
  non local Contribution for L=           0  read in
    real space projection operators read in
    PAW grid and wavefunctions read in

   number of l-projection  operators is LMAX  =           6
   number of lm-projection operators is LMMAX =          18

 POTCAR:    PAW_PBE O 08Apr2002                   
   VRHFIN =O: s2p4                                                              
   LEXCH  = PE                                                                  
   EATOM  =   432.3788 eV,   31.7789 Ry                                         
                                                                                
   TITEL  = PAW_PBE O 08Apr2002                                                 
   LULTRA =        F    use ultrasoft PP ?                                      
   IUNSCR =        1    unscreen: 0-lin 1-nonlin 2-no                           
   RPACOR =    1.200    partial core radius                                     
   POMASS =   16.000; ZVAL   =    6.000    mass and valenz                      
   RCORE  =    1.520    outmost cutoff radius                                   
   RWIGS  =    1.550; RWIGS  =    0.820    wigner-seitz radius (au A)           
   ENMAX  =  400.000; ENMIN  =  300.000 eV                                      
   ICORE  =        2    local potential                                         
   LCOR   =        T    correct aug charges                                     
   LPAW   =        T    paw PP                                                  
   EAUG   =  605.392                                                            
   DEXC   =    0.000                                                            
   RMAX   =    1.553    core radius for proj-oper                               
   RAUG   =    1.300    factor for augmentation sphere                          
   RDEP   =    1.550    radius for radial grids                                 
   RDEPT  =    1.329    core radius for aug-charge                              
                                                                                
   Atomic configuration                                                         
    4 entries                                                                   
     n  l   j            E        occ.                                          
     1  0  0.50      -514.6923   2.0000                                         
     2  0  0.50       -23.9615   2.0000                                         
     2  1  0.50        -9.0305   4.0000                                         
     3  2  1.50        -9.5241   0.0000                                         
   Description                                                                  
     l       E           TYP  RCUT    TYP  RCUT                                 
     0    -23.9615318     23  1.200                                             
     0     -9.5240782     23  1.200                                             
     1     -9.0304911     23  1.520                                             
     1      8.1634956     23  1.520                                             
     2     -9.5240782      7  1.500                                             
  local pseudopotential read in
  partial core-charges read in
  partial kinetic energy density read in
  kinetic energy density of atom read in
  atomic valenz-charges read in
  non local Contribution for L=           0  read in
    real space projection operators read in
  non local Contribution for L=           0  read in
    real space projection operators read in
  non local Contribution for L=           1  read in
    real space projection operators read in
  non local Contribution for L=           1  read in
    real space projection operators read in
    PAW grid and wavefunctions read in

   number of l-projection  operators is LMAX  =           4
   number of lm-projection operators is LMMAX =           8


 ----------------------------------------------------------------------------- 
|                                                                             |
|  ADVICE TO THIS USER RUNNING 'VASP/VAMP'   (HEAR YOUR MASTER'S VOICE ...):  |
|                                                                             |
|      You have a (more or less) 'large supercell' and for larger cells       |
|      it might be more efficient to use real space projection opertators     |
|      So try LREAL= Auto  in the INCAR   file.                               |
|      Mind:          For very  accurate calculation you might also keep the  |
|      reciprocal projection scheme          (i.e. LREAL=.FALSE.)             |
|                                                                             |
 ----------------------------------------------------------------------------- 

  PAW_PBE Pr_3 07Sep2000                :
 energy of atom  1       EATOM= -912.8502
 kinetic energy error for atom=    0.0004 (will be added to EATOM!!)
  PAW_PBE Ni_pv 06Sep2000               :
 energy of atom  2       EATOM=-3501.1230
 kinetic energy error for atom=    0.0396 (will be added to EATOM!!)
  PAW_PBE O 08Apr2002                   :
 energy of atom  3       EATOM= -432.3788
 kinetic energy error for atom=    0.0194 (will be added to EATOM!!)


 POSCAR: PrNiO3                                  
  positions in direct lattice
  No initial velocities read in
 exchange correlation table for  LEXCH =        8
   RHO(1)=    0.500       N(1)  =     2000
   RHO(2)=  100.500       N(2)  =     4000



--------------------------------------------------------------------------------------------------------


 ion  position               nearest neighbor table
   1  0.993  0.036  0.250-  20 2.40  16 2.44  15 2.44  18 2.51   9 2.56  10 2.57  13 2.73  14 2.73
                             6 3.17   8 3.17   4 3.78   4 3.78   2 3.86   2 3.86   4 3.90   4 3.90
   2  0.007  0.964  0.750-  17 2.40  14 2.44  13 2.44  19 2.51  11 2.56  12 2.57  15 2.73  16 2.73
                             6 3.17   8 3.17   3 3.78   3 3.78   1 3.86   1 3.86   3 3.90   3 3.90
   3  0.493  0.464  0.750-  19 2.40  11 2.44  12 2.44  17 2.51  14 2.56  13 2.57  10 2.73   9 2.73
                             5 3.17   7 3.17   2 3.78   2 3.78   4 3.86   4 3.86   2 3.90   2 3.90
   4  0.507  0.536  0.250-  18 2.40   9 2.44  10 2.44  20 2.51  16 2.56  15 2.57  12 2.73  11 2.73
                             5 3.17   7 3.17   1 3.78   1 3.78   3 3.86   3 3.86   1 3.90   1 3.90
   5  0.500  0.000  0.000-  13 1.98  15 1.98  11 1.98   9 1.98  17 1.98  20 1.98   3 3.17   4 3.17

   6  0.000  0.500  0.000-   9 1.93  11 1.93  15 1.93  13 1.93  19 1.93  18 1.93   1 3.17   2 3.17

   7  0.500  0.000  0.500-  14 1.93  16 1.93  12 1.93  10 1.93  17 1.93  20 1.93   3 3.17   4 3.17

   8  0.000  0.500  0.500-  10 1.98  12 1.98  16 1.98  14 1.98  19 1.98  18 1.98   1 3.17   2 3.17

   9  0.724  0.283  0.038-   6 1.93   5 1.98   4 2.44   1 2.56   3 2.73
  10  0.718  0.276  0.462-   7 1.93   8 1.98   4 2.44   1 2.57   3 2.73
  11  0.276  0.717  0.962-   6 1.93   5 1.98   3 2.44   2 2.56   4 2.73
  12  0.282  0.724  0.538-   7 1.93   8 1.98   3 2.44   2 2.57   4 2.73
  13  0.218  0.224  0.962-   6 1.93   5 1.98   2 2.44   3 2.57   1 2.73
  14  0.224  0.217  0.538-   7 1.93   8 1.98   2 2.44   3 2.56   1 2.73
  15  0.782  0.776  0.038-   6 1.93   5 1.98   1 2.44   4 2.57   2 2.73
  16  0.776  0.783  0.462-   7 1.93   8 1.98   1 2.44   4 2.56   2 2.73
  17  0.568  0.006  0.747-   7 1.93   5 1.98   2 2.40   3 2.51
  18  0.068  0.494  0.247-   6 1.93   8 1.98   4 2.40   1 2.51
  19  0.932  0.506  0.753-   6 1.93   8 1.98   3 2.40   2 2.51
  20  0.432  0.994  0.253-   7 1.93   5 1.98   1 2.40   4 2.51


IMPORTANT INFORMATION: All symmetrisations will be switched off!
NOSYMM: (Re-)initialisation of all symmetry stuff for point group C_1.



 KPOINTS: Automatic kpoint scheme                 

Automatic generation of k-mesh.
Space group operators:
 irot       det(A)        alpha          n_x          n_y          n_z        tau_x        tau_y        tau_z
    1     1.000000     0.000000     1.000000     0.000000     0.000000     0.000000     0.000000     0.000000
 
 Subroutine IBZKPT returns following result:
 ===========================================
 
 Found    245 irreducible k-points:
 
 Following reciprocal coordinates:
            Coordinates               Weight
  0.000000  0.000000  0.000000      1.000000
  0.142857  0.000000  0.000000      1.000000
  0.285714  0.000000  0.000000      1.000000
  0.428571  0.000000  0.000000      1.000000
 -0.428571  0.000000  0.000000      1.000000
 -0.285714  0.000000  0.000000      1.000000
 -0.142857  0.000000  0.000000      1.000000
  0.000000  0.142857  0.000000      1.000000
  0.142857  0.142857  0.000000      1.000000
  0.285714  0.142857  0.000000      1.000000
  0.428571  0.142857  0.000000      1.000000
 -0.428571  0.142857  0.000000      1.000000
 -0.285714  0.142857  0.000000      1.000000
 -0.142857  0.142857  0.000000      1.000000
  0.000000  0.285714  0.000000      1.000000
  0.142857  0.285714  0.000000      1.000000
  0.285714  0.285714  0.000000      1.000000
  0.428571  0.285714  0.000000      1.000000
 -0.428571  0.285714  0.000000      1.000000
 -0.285714  0.285714  0.000000      1.000000
 -0.142857  0.285714  0.000000      1.000000
  0.000000  0.428571  0.000000      1.000000
  0.142857  0.428571  0.000000      1.000000
  0.285714  0.428571  0.000000      1.000000
  0.428571  0.428571  0.000000      1.000000
 -0.428571  0.428571  0.000000      1.000000
 -0.285714  0.428571  0.000000      1.000000
 -0.142857  0.428571  0.000000      1.000000
  0.000000 -0.428571  0.000000      1.000000
  0.142857 -0.428571  0.000000      1.000000
  0.285714 -0.428571  0.000000      1.000000
  0.428571 -0.428571  0.000000      1.000000
 -0.428571 -0.428571  0.000000      1.000000
 -0.285714 -0.428571  0.000000      1.000000
 -0.142857 -0.428571  0.000000      1.000000
  0.000000 -0.285714  0.000000      1.000000
  0.142857 -0.285714  0.000000      1.000000
  0.285714 -0.285714  0.000000      1.000000
  0.428571 -0.285714  0.000000      1.000000
 -0.428571 -0.285714  0.000000      1.000000
 -0.285714 -0.285714  0.000000      1.000000
 -0.142857 -0.285714  0.000000      1.000000
  0.000000 -0.142857  0.000000      1.000000
  0.142857 -0.142857  0.000000      1.000000
  0.285714 -0.142857  0.000000      1.000000
  0.428571 -0.142857  0.000000      1.000000
 -0.428571 -0.142857  0.000000      1.000000
 -0.285714 -0.142857  0.000000      1.000000
 -0.142857 -0.142857  0.000000      1.000000
  0.000000  0.000000  0.200000      1.000000
  0.142857  0.000000  0.200000      1.000000
  0.285714  0.000000  0.200000      1.000000
  0.428571  0.000000  0.200000      1.000000
 -0.428571  0.000000  0.200000      1.000000
 -0.285714  0.000000  0.200000      1.000000
 -0.142857  0.000000  0.200000      1.000000
  0.000000  0.142857  0.200000      1.000000
  0.142857  0.142857  0.200000      1.000000
  0.285714  0.142857  0.200000      1.000000
  0.428571  0.142857  0.200000      1.000000
 -0.428571  0.142857  0.200000      1.000000
 -0.285714  0.142857  0.200000      1.000000
 -0.142857  0.142857  0.200000      1.000000
  0.000000  0.285714  0.200000      1.000000
  0.142857  0.285714  0.200000      1.000000
  0.285714  0.285714  0.200000      1.000000
  0.428571  0.285714  0.200000      1.000000
 -0.428571  0.285714  0.200000      1.000000
 -0.285714  0.285714  0.200000      1.000000
 -0.142857  0.285714  0.200000      1.000000
  0.000000  0.428571  0.200000      1.000000
  0.142857  0.428571  0.200000      1.000000
  0.285714  0.428571  0.200000      1.000000
  0.428571  0.428571  0.200000      1.000000
 -0.428571  0.428571  0.200000      1.000000
 -0.285714  0.428571  0.200000      1.000000
 -0.142857  0.428571  0.200000      1.000000
  0.000000 -0.428571  0.200000      1.000000
  0.142857 -0.428571  0.200000      1.000000
  0.285714 -0.428571  0.200000      1.000000
  0.428571 -0.428571  0.200000      1.000000
 -0.428571 -0.428571  0.200000      1.000000
 -0.285714 -0.428571  0.200000      1.000000
 -0.142857 -0.428571  0.200000      1.000000
  0.000000 -0.285714  0.200000      1.000000
  0.142857 -0.285714  0.200000      1.000000
  0.285714 -0.285714  0.200000      1.000000
  0.428571 -0.285714  0.200000      1.000000
 -0.428571 -0.285714  0.200000      1.000000
 -0.285714 -0.285714  0.200000      1.000000
 -0.142857 -0.285714  0.200000      1.000000
  0.000000 -0.142857  0.200000      1.000000
  0.142857 -0.142857  0.200000      1.000000
  0.285714 -0.142857  0.200000      1.000000
  0.428571 -0.142857  0.200000      1.000000
 -0.428571 -0.142857  0.200000      1.000000
 -0.285714 -0.142857  0.200000      1.000000
 -0.142857 -0.142857  0.200000      1.000000
  0.000000  0.000000  0.400000      1.000000
  0.142857  0.000000  0.400000      1.000000
  0.285714  0.000000  0.400000      1.000000
  0.428571  0.000000  0.400000      1.000000
 -0.428571  0.000000  0.400000      1.000000
 -0.285714  0.000000  0.400000      1.000000
 -0.142857  0.000000  0.400000      1.000000
  0.000000  0.142857  0.400000      1.000000
  0.142857  0.142857  0.400000      1.000000
  0.285714  0.142857  0.400000      1.000000
  0.428571  0.142857  0.400000      1.000000
 -0.428571  0.142857  0.400000      1.000000
 -0.285714  0.142857  0.400000      1.000000
 -0.142857  0.142857  0.400000      1.000000
  0.000000  0.285714  0.400000      1.000000
  0.142857  0.285714  0.400000      1.000000
  0.285714  0.285714  0.400000      1.000000
  0.428571  0.285714  0.400000      1.000000
 -0.428571  0.285714  0.400000      1.000000
 -0.285714  0.285714  0.400000      1.000000
 -0.142857  0.285714  0.400000      1.000000
  0.000000  0.428571  0.400000      1.000000
  0.142857  0.428571  0.400000      1.000000
  0.285714  0.428571  0.400000      1.000000
  0.428571  0.428571  0.400000      1.000000
 -0.428571  0.428571  0.400000      1.000000
 -0.285714  0.428571  0.400000      1.000000
 -0.142857  0.428571  0.400000      1.000000
  0.000000 -0.428571  0.400000      1.000000
  0.142857 -0.428571  0.400000      1.000000
  0.285714 -0.428571  0.400000      1.000000
  0.428571 -0.428571  0.400000      1.000000
 -0.428571 -0.428571  0.400000      1.000000
 -0.285714 -0.428571  0.400000      1.000000
 -0.142857 -0.428571  0.400000      1.000000
  0.000000 -0.285714  0.400000      1.000000
  0.142857 -0.285714  0.400000      1.000000
  0.285714 -0.285714  0.400000      1.000000
  0.428571 -0.285714  0.400000      1.000000
 -0.428571 -0.285714  0.400000      1.000000
 -0.285714 -0.285714  0.400000      1.000000
 -0.142857 -0.285714  0.400000      1.000000
  0.000000 -0.142857  0.400000      1.000000
  0.142857 -0.142857  0.400000      1.000000
  0.285714 -0.142857  0.400000      1.000000
  0.428571 -0.142857  0.400000      1.000000
 -0.428571 -0.142857  0.400000      1.000000
 -0.285714 -0.142857  0.400000      1.000000
 -0.142857 -0.142857  0.400000      1.000000
  0.000000  0.000000 -0.400000      1.000000
  0.142857  0.000000 -0.400000      1.000000
  0.285714  0.000000 -0.400000      1.000000
  0.428571  0.000000 -0.400000      1.000000
 -0.428571  0.000000 -0.400000      1.000000
 -0.285714  0.000000 -0.400000      1.000000
 -0.142857  0.000000 -0.400000      1.000000
  0.000000  0.142857 -0.400000      1.000000
  0.142857  0.142857 -0.400000      1.000000
  0.285714  0.142857 -0.400000      1.000000
  0.428571  0.142857 -0.400000      1.000000
 -0.428571  0.142857 -0.400000      1.000000
 -0.285714  0.142857 -0.400000      1.000000
 -0.142857  0.142857 -0.400000      1.000000
  0.000000  0.285714 -0.400000      1.000000
  0.142857  0.285714 -0.400000      1.000000
  0.285714  0.285714 -0.400000      1.000000
  0.428571  0.285714 -0.400000      1.000000
 -0.428571  0.285714 -0.400000      1.000000
 -0.285714  0.285714 -0.400000      1.000000
 -0.142857  0.285714 -0.400000      1.000000
  0.000000  0.428571 -0.400000      1.000000
  0.142857  0.428571 -0.400000      1.000000
  0.285714  0.428571 -0.400000      1.000000
  0.428571  0.428571 -0.400000      1.000000
 -0.428571  0.428571 -0.400000      1.000000
 -0.285714  0.428571 -0.400000      1.000000
 -0.142857  0.428571 -0.400000      1.000000
  0.000000 -0.428571 -0.400000      1.000000
  0.142857 -0.428571 -0.400000      1.000000
  0.285714 -0.428571 -0.400000      1.000000
  0.428571 -0.428571 -0.400000      1.000000
 -0.428571 -0.428571 -0.400000      1.000000
 -0.285714 -0.428571 -0.400000      1.000000
 -0.142857 -0.428571 -0.400000      1.000000
  0.000000 -0.285714 -0.400000      1.000000
  0.142857 -0.285714 -0.400000      1.000000
  0.285714 -0.285714 -0.400000      1.000000
  0.428571 -0.285714 -0.400000      1.000000
 -0.428571 -0.285714 -0.400000      1.000000
 -0.285714 -0.285714 -0.400000      1.000000
 -0.142857 -0.285714 -0.400000      1.000000
  0.000000 -0.142857 -0.400000      1.000000
  0.142857 -0.142857 -0.400000      1.000000
  0.285714 -0.142857 -0.400000      1.000000
  0.428571 -0.142857 -0.400000      1.000000
 -0.428571 -0.142857 -0.400000      1.000000
 -0.285714 -0.142857 -0.400000      1.000000
 -0.142857 -0.142857 -0.400000      1.000000
  0.000000  0.000000 -0.200000      1.000000
  0.142857  0.000000 -0.200000      1.000000
  0.285714  0.000000 -0.200000      1.000000
  0.428571  0.000000 -0.200000      1.000000
 -0.428571  0.000000 -0.200000      1.000000
 -0.285714  0.000000 -0.200000      1.000000
 -0.142857  0.000000 -0.200000      1.000000
  0.000000  0.142857 -0.200000      1.000000
  0.142857  0.142857 -0.200000      1.000000
  0.285714  0.142857 -0.200000      1.000000
  0.428571  0.142857 -0.200000      1.000000
 -0.428571  0.142857 -0.200000      1.000000
 -0.285714  0.142857 -0.200000      1.000000
 -0.142857  0.142857 -0.200000      1.000000
  0.000000  0.285714 -0.200000      1.000000
  0.142857  0.285714 -0.200000      1.000000
  0.285714  0.285714 -0.200000      1.000000
  0.428571  0.285714 -0.200000      1.000000
 -0.428571  0.285714 -0.200000      1.000000
 -0.285714  0.285714 -0.200000      1.000000
 -0.142857  0.285714 -0.200000      1.000000
  0.000000  0.428571 -0.200000      1.000000
  0.142857  0.428571 -0.200000      1.000000
  0.285714  0.428571 -0.200000      1.000000
  0.428571  0.428571 -0.200000      1.000000
 -0.428571  0.428571 -0.200000      1.000000
 -0.285714  0.428571 -0.200000      1.000000
 -0.142857  0.428571 -0.200000      1.000000
  0.000000 -0.428571 -0.200000      1.000000
  0.142857 -0.428571 -0.200000      1.000000
  0.285714 -0.428571 -0.200000      1.000000
  0.428571 -0.428571 -0.200000      1.000000
 -0.428571 -0.428571 -0.200000      1.000000
 -0.285714 -0.428571 -0.200000      1.000000
 -0.142857 -0.428571 -0.200000      1.000000
  0.000000 -0.285714 -0.200000      1.000000
  0.142857 -0.285714 -0.200000      1.000000
  0.285714 -0.285714 -0.200000      1.000000
  0.428571 -0.285714 -0.200000      1.000000
 -0.428571 -0.285714 -0.200000      1.000000
 -0.285714 -0.285714 -0.200000      1.000000
 -0.142857 -0.285714 -0.200000      1.000000
  0.000000 -0.142857 -0.200000      1.000000
  0.142857 -0.142857 -0.200000      1.000000
  0.285714 -0.142857 -0.200000      1.000000
  0.428571 -0.142857 -0.200000      1.000000
 -0.428571 -0.142857 -0.200000      1.000000
 -0.285714 -0.142857 -0.200000      1.000000
 -0.142857 -0.142857 -0.200000      1.000000
 
 Following cartesian coordinates:
            Coordinates               Weight
  0.000000  0.000000  0.000000      1.000000
  0.026259  0.000000  0.000000      1.000000
  0.052518  0.000000  0.000000      1.000000
  0.078777  0.000000  0.000000      1.000000
 -0.078777  0.000000  0.000000      1.000000
 -0.052518  0.000000  0.000000      1.000000
 -0.026259  0.000000  0.000000      1.000000
  0.000000  0.026359  0.000000      1.000000
  0.026259  0.026359  0.000000      1.000000
  0.052518  0.026359  0.000000      1.000000
  0.078777  0.026359  0.000000      1.000000
 -0.078777  0.026359  0.000000      1.000000
 -0.052518  0.026359  0.000000      1.000000
 -0.026259  0.026359  0.000000      1.000000
  0.000000  0.052718  0.000000      1.000000
  0.026259  0.052718  0.000000      1.000000
  0.052518  0.052718  0.000000      1.000000
  0.078777  0.052718  0.000000      1.000000
 -0.078777  0.052718  0.000000      1.000000
 -0.052518  0.052718  0.000000      1.000000
 -0.026259  0.052718  0.000000      1.000000
  0.000000  0.079076  0.000000      1.000000
  0.026259  0.079076  0.000000      1.000000
  0.052518  0.079076  0.000000      1.000000
  0.078777  0.079076  0.000000      1.000000
 -0.078777  0.079076  0.000000      1.000000
 -0.052518  0.079076  0.000000      1.000000
 -0.026259  0.079076  0.000000      1.000000
  0.000000 -0.079076  0.000000      1.000000
  0.026259 -0.079076  0.000000      1.000000
  0.052518 -0.079076  0.000000      1.000000
  0.078777 -0.079076  0.000000      1.000000
 -0.078777 -0.079076  0.000000      1.000000
 -0.052518 -0.079076  0.000000      1.000000
 -0.026259 -0.079076  0.000000      1.000000
  0.000000 -0.052718  0.000000      1.000000
  0.026259 -0.052718  0.000000      1.000000
  0.052518 -0.052718  0.000000      1.000000
  0.078777 -0.052718  0.000000      1.000000
 -0.078777 -0.052718  0.000000      1.000000
 -0.052518 -0.052718  0.000000      1.000000
 -0.026259 -0.052718  0.000000      1.000000
  0.000000 -0.026359  0.000000      1.000000
  0.026259 -0.026359  0.000000      1.000000
  0.052518 -0.026359  0.000000      1.000000
  0.078777 -0.026359  0.000000      1.000000
 -0.078777 -0.026359  0.000000      1.000000
 -0.052518 -0.026359  0.000000      1.000000
 -0.026259 -0.026359  0.000000      1.000000
  0.000000  0.000000  0.026019      1.000000
  0.026259  0.000000  0.026019      1.000000
  0.052518  0.000000  0.026019      1.000000
  0.078777  0.000000  0.026019      1.000000
 -0.078777  0.000000  0.026019      1.000000
 -0.052518  0.000000  0.026019      1.000000
 -0.026259  0.000000  0.026019      1.000000
  0.000000  0.026359  0.026019      1.000000
  0.026259  0.026359  0.026019      1.000000
  0.052518  0.026359  0.026019      1.000000
  0.078777  0.026359  0.026019      1.000000
 -0.078777  0.026359  0.026019      1.000000
 -0.052518  0.026359  0.026019      1.000000
 -0.026259  0.026359  0.026019      1.000000
  0.000000  0.052718  0.026019      1.000000
  0.026259  0.052718  0.026019      1.000000
  0.052518  0.052718  0.026019      1.000000
  0.078777  0.052718  0.026019      1.000000
 -0.078777  0.052718  0.026019      1.000000
 -0.052518  0.052718  0.026019      1.000000
 -0.026259  0.052718  0.026019      1.000000
  0.000000  0.079076  0.026019      1.000000
  0.026259  0.079076  0.026019      1.000000
  0.052518  0.079076  0.026019      1.000000
  0.078777  0.079076  0.026019      1.000000
 -0.078777  0.079076  0.026019      1.000000
 -0.052518  0.079076  0.026019      1.000000
 -0.026259  0.079076  0.026019      1.000000
  0.000000 -0.079076  0.026019      1.000000
  0.026259 -0.079076  0.026019      1.000000
  0.052518 -0.079076  0.026019      1.000000
  0.078777 -0.079076  0.026019      1.000000
 -0.078777 -0.079076  0.026019      1.000000
 -0.052518 -0.079076  0.026019      1.000000
 -0.026259 -0.079076  0.026019      1.000000
  0.000000 -0.052718  0.026019      1.000000
  0.026259 -0.052718  0.026019      1.000000
  0.052518 -0.052718  0.026019      1.000000
  0.078777 -0.052718  0.026019      1.000000
 -0.078777 -0.052718  0.026019      1.000000
 -0.052518 -0.052718  0.026019      1.000000
 -0.026259 -0.052718  0.026019      1.000000
  0.000000 -0.026359  0.026019      1.000000
  0.026259 -0.026359  0.026019      1.000000
  0.052518 -0.026359  0.026019      1.000000
  0.078777 -0.026359  0.026019      1.000000
 -0.078777 -0.026359  0.026019      1.000000
 -0.052518 -0.026359  0.026019      1.000000
 -0.026259 -0.026359  0.026019      1.000000
  0.000000  0.000000  0.052039      1.000000
  0.026259  0.000000  0.052039      1.000000
  0.052518  0.000000  0.052039      1.000000
  0.078777  0.000000  0.052039      1.000000
 -0.078777  0.000000  0.052039      1.000000
 -0.052518  0.000000  0.052039      1.000000
 -0.026259  0.000000  0.052039      1.000000
  0.000000  0.026359  0.052039      1.000000
  0.026259  0.026359  0.052039      1.000000
  0.052518  0.026359  0.052039      1.000000
  0.078777  0.026359  0.052039      1.000000
 -0.078777  0.026359  0.052039      1.000000
 -0.052518  0.026359  0.052039      1.000000
 -0.026259  0.026359  0.052039      1.000000
  0.000000  0.052718  0.052039      1.000000
  0.026259  0.052718  0.052039      1.000000
  0.052518  0.052718  0.052039      1.000000
  0.078777  0.052718  0.052039      1.000000
 -0.078777  0.052718  0.052039      1.000000
 -0.052518  0.052718  0.052039      1.000000
 -0.026259  0.052718  0.052039      1.000000
  0.000000  0.079076  0.052039      1.000000
  0.026259  0.079076  0.052039      1.000000
  0.052518  0.079076  0.052039      1.000000
  0.078777  0.079076  0.052039      1.000000
 -0.078777  0.079076  0.052039      1.000000
 -0.052518  0.079076  0.052039      1.000000
 -0.026259  0.079076  0.052039      1.000000
  0.000000 -0.079076  0.052039      1.000000
  0.026259 -0.079076  0.052039      1.000000
  0.052518 -0.079076  0.052039      1.000000
  0.078777 -0.079076  0.052039      1.000000
 -0.078777 -0.079076  0.052039      1.000000
 -0.052518 -0.079076  0.052039      1.000000
 -0.026259 -0.079076  0.052039      1.000000
  0.000000 -0.052718  0.052039      1.000000
  0.026259 -0.052718  0.052039      1.000000
  0.052518 -0.052718  0.052039      1.000000
  0.078777 -0.052718  0.052039      1.000000
 -0.078777 -0.052718  0.052039      1.000000
 -0.052518 -0.052718  0.052039      1.000000
 -0.026259 -0.052718  0.052039      1.000000
  0.000000 -0.026359  0.052039      1.000000
  0.026259 -0.026359  0.052039      1.000000
  0.052518 -0.026359  0.052039      1.000000
  0.078777 -0.026359  0.052039      1.000000
 -0.078777 -0.026359  0.052039      1.000000
 -0.052518 -0.026359  0.052039      1.000000
 -0.026259 -0.026359  0.052039      1.000000
  0.000000  0.000000 -0.052039      1.000000
  0.026259  0.000000 -0.052039      1.000000
  0.052518  0.000000 -0.052039      1.000000
  0.078777  0.000000 -0.052039      1.000000
 -0.078777  0.000000 -0.052039      1.000000
 -0.052518  0.000000 -0.052039      1.000000
 -0.026259  0.000000 -0.052039      1.000000
  0.000000  0.026359 -0.052039      1.000000
  0.026259  0.026359 -0.052039      1.000000
  0.052518  0.026359 -0.052039      1.000000
  0.078777  0.026359 -0.052039      1.000000
 -0.078777  0.026359 -0.052039      1.000000
 -0.052518  0.026359 -0.052039      1.000000
 -0.026259  0.026359 -0.052039      1.000000
  0.000000  0.052718 -0.052039      1.000000
  0.026259  0.052718 -0.052039      1.000000
  0.052518  0.052718 -0.052039      1.000000
  0.078777  0.052718 -0.052039      1.000000
 -0.078777  0.052718 -0.052039      1.000000
 -0.052518  0.052718 -0.052039      1.000000
 -0.026259  0.052718 -0.052039      1.000000
  0.000000  0.079076 -0.052039      1.000000
  0.026259  0.079076 -0.052039      1.000000
  0.052518  0.079076 -0.052039      1.000000
  0.078777  0.079076 -0.052039      1.000000
 -0.078777  0.079076 -0.052039      1.000000
 -0.052518  0.079076 -0.052039      1.000000
 -0.026259  0.079076 -0.052039      1.000000
  0.000000 -0.079076 -0.052039      1.000000
  0.026259 -0.079076 -0.052039      1.000000
  0.052518 -0.079076 -0.052039      1.000000
  0.078777 -0.079076 -0.052039      1.000000
 -0.078777 -0.079076 -0.052039      1.000000
 -0.052518 -0.079076 -0.052039      1.000000
 -0.026259 -0.079076 -0.052039      1.000000
  0.000000 -0.052718 -0.052039      1.000000
  0.026259 -0.052718 -0.052039      1.000000
  0.052518 -0.052718 -0.052039      1.000000
  0.078777 -0.052718 -0.052039      1.000000
 -0.078777 -0.052718 -0.052039      1.000000
 -0.052518 -0.052718 -0.052039      1.000000
 -0.026259 -0.052718 -0.052039      1.000000
  0.000000 -0.026359 -0.052039      1.000000
  0.026259 -0.026359 -0.052039      1.000000
  0.052518 -0.026359 -0.052039      1.000000
  0.078777 -0.026359 -0.052039      1.000000
 -0.078777 -0.026359 -0.052039      1.000000
 -0.052518 -0.026359 -0.052039      1.000000
 -0.026259 -0.026359 -0.052039      1.000000
  0.000000  0.000000 -0.026019      1.000000
  0.026259  0.000000 -0.026019      1.000000
  0.052518  0.000000 -0.026019      1.000000
  0.078777  0.000000 -0.026019      1.000000
 -0.078777  0.000000 -0.026019      1.000000
 -0.052518  0.000000 -0.026019      1.000000
 -0.026259  0.000000 -0.026019      1.000000
  0.000000  0.026359 -0.026019      1.000000
  0.026259  0.026359 -0.026019      1.000000
  0.052518  0.026359 -0.026019      1.000000
  0.078777  0.026359 -0.026019      1.000000
 -0.078777  0.026359 -0.026019      1.000000
 -0.052518  0.026359 -0.026019      1.000000
 -0.026259  0.026359 -0.026019      1.000000
  0.000000  0.052718 -0.026019      1.000000
  0.026259  0.052718 -0.026019      1.000000
  0.052518  0.052718 -0.026019      1.000000
  0.078777  0.052718 -0.026019      1.000000
 -0.078777  0.052718 -0.026019      1.000000
 -0.052518  0.052718 -0.026019      1.000000
 -0.026259  0.052718 -0.026019      1.000000
  0.000000  0.079076 -0.026019      1.000000
  0.026259  0.079076 -0.026019      1.000000
  0.052518  0.079076 -0.026019      1.000000
  0.078777  0.079076 -0.026019      1.000000
 -0.078777  0.079076 -0.026019      1.000000
 -0.052518  0.079076 -0.026019      1.000000
 -0.026259  0.079076 -0.026019      1.000000
  0.000000 -0.079076 -0.026019      1.000000
  0.026259 -0.079076 -0.026019      1.000000
  0.052518 -0.079076 -0.026019      1.000000
  0.078777 -0.079076 -0.026019      1.000000
 -0.078777 -0.079076 -0.026019      1.000000
 -0.052518 -0.079076 -0.026019      1.000000
 -0.026259 -0.079076 -0.026019      1.000000
  0.000000 -0.052718 -0.026019      1.000000
  0.026259 -0.052718 -0.026019      1.000000
  0.052518 -0.052718 -0.026019      1.000000
  0.078777 -0.052718 -0.026019      1.000000
 -0.078777 -0.052718 -0.026019      1.000000
 -0.052518 -0.052718 -0.026019      1.000000
 -0.026259 -0.052718 -0.026019      1.000000
  0.000000 -0.026359 -0.026019      1.000000
  0.026259 -0.026359 -0.026019      1.000000
  0.052518 -0.026359 -0.026019      1.000000
  0.078777 -0.026359 -0.026019      1.000000
 -0.078777 -0.026359 -0.026019      1.000000
 -0.052518 -0.026359 -0.026019      1.000000
 -0.026259 -0.026359 -0.026019      1.000000
 
 TETIRR: Found   1470 inequivalent tetrahedra from     1470
 
 Subroutine IBZKPT_HF returns following result:
 ==============================================
 
 Found    245 k-points in 1st BZ
 the following    245 k-points will be used (e.g. in the exchange kernel)
 Following reciprocal coordinates:   # in IRBZ
  0.000000  0.000000  0.000000    0.00408163   1 t-inv F
  0.142857  0.000000  0.000000    0.00408163   2 t-inv F
  0.285714  0.000000  0.000000    0.00408163   3 t-inv F
  0.428571  0.000000  0.000000    0.00408163   4 t-inv F
 -0.428571  0.000000  0.000000    0.00408163   5 t-inv F
 -0.285714  0.000000  0.000000    0.00408163   6 t-inv F
 -0.142857  0.000000  0.000000    0.00408163   7 t-inv F
  0.000000  0.142857  0.000000    0.00408163   8 t-inv F
  0.142857  0.142857  0.000000    0.00408163   9 t-inv F
  0.285714  0.142857  0.000000    0.00408163  10 t-inv F
  0.428571  0.142857  0.000000    0.00408163  11 t-inv F
 -0.428571  0.142857  0.000000    0.00408163  12 t-inv F
 -0.285714  0.142857  0.000000    0.00408163  13 t-inv F
 -0.142857  0.142857  0.000000    0.00408163  14 t-inv F
  0.000000  0.285714  0.000000    0.00408163  15 t-inv F
  0.142857  0.285714  0.000000    0.00408163  16 t-inv F
  0.285714  0.285714  0.000000    0.00408163  17 t-inv F
  0.428571  0.285714  0.000000    0.00408163  18 t-inv F
 -0.428571  0.285714  0.000000    0.00408163  19 t-inv F
 -0.285714  0.285714  0.000000    0.00408163  20 t-inv F
 -0.142857  0.285714  0.000000    0.00408163  21 t-inv F
  0.000000  0.428571  0.000000    0.00408163  22 t-inv F
  0.142857  0.428571  0.000000    0.00408163  23 t-inv F
  0.285714  0.428571  0.000000    0.00408163  24 t-inv F
  0.428571  0.428571  0.000000    0.00408163  25 t-inv F
 -0.428571  0.428571  0.000000    0.00408163  26 t-inv F
 -0.285714  0.428571  0.000000    0.00408163  27 t-inv F
 -0.142857  0.428571  0.000000    0.00408163  28 t-inv F
  0.000000 -0.428571  0.000000    0.00408163  29 t-inv F
  0.142857 -0.428571  0.000000    0.00408163  30 t-inv F
  0.285714 -0.428571  0.000000    0.00408163  31 t-inv F
  0.428571 -0.428571  0.000000    0.00408163  32 t-inv F
 -0.428571 -0.428571  0.000000    0.00408163  33 t-inv F
 -0.285714 -0.428571  0.000000    0.00408163  34 t-inv F
 -0.142857 -0.428571  0.000000    0.00408163  35 t-inv F
  0.000000 -0.285714  0.000000    0.00408163  36 t-inv F
  0.142857 -0.285714  0.000000    0.00408163  37 t-inv F
  0.285714 -0.285714  0.000000    0.00408163  38 t-inv F
  0.428571 -0.285714  0.000000    0.00408163  39 t-inv F
 -0.428571 -0.285714  0.000000    0.00408163  40 t-inv F
 -0.285714 -0.285714  0.000000    0.00408163  41 t-inv F
 -0.142857 -0.285714  0.000000    0.00408163  42 t-inv F
  0.000000 -0.142857  0.000000    0.00408163  43 t-inv F
  0.142857 -0.142857  0.000000    0.00408163  44 t-inv F
  0.285714 -0.142857  0.000000    0.00408163  45 t-inv F
  0.428571 -0.142857  0.000000    0.00408163  46 t-inv F
 -0.428571 -0.142857  0.000000    0.00408163  47 t-inv F
 -0.285714 -0.142857  0.000000    0.00408163  48 t-inv F
 -0.142857 -0.142857  0.000000    0.00408163  49 t-inv F
  0.000000  0.000000  0.200000    0.00408163  50 t-inv F
  0.142857  0.000000  0.200000    0.00408163  51 t-inv F
  0.285714  0.000000  0.200000    0.00408163  52 t-inv F
  0.428571  0.000000  0.200000    0.00408163  53 t-inv F
 -0.428571  0.000000  0.200000    0.00408163  54 t-inv F
 -0.285714  0.000000  0.200000    0.00408163  55 t-inv F
 -0.142857  0.000000  0.200000    0.00408163  56 t-inv F
  0.000000  0.142857  0.200000    0.00408163  57 t-inv F
  0.142857  0.142857  0.200000    0.00408163  58 t-inv F
  0.285714  0.142857  0.200000    0.00408163  59 t-inv F
  0.428571  0.142857  0.200000    0.00408163  60 t-inv F
 -0.428571  0.142857  0.200000    0.00408163  61 t-inv F
 -0.285714  0.142857  0.200000    0.00408163  62 t-inv F
 -0.142857  0.142857  0.200000    0.00408163  63 t-inv F
  0.000000  0.285714  0.200000    0.00408163  64 t-inv F
  0.142857  0.285714  0.200000    0.00408163  65 t-inv F
  0.285714  0.285714  0.200000    0.00408163  66 t-inv F
  0.428571  0.285714  0.200000    0.00408163  67 t-inv F
 -0.428571  0.285714  0.200000    0.00408163  68 t-inv F
 -0.285714  0.285714  0.200000    0.00408163  69 t-inv F
 -0.142857  0.285714  0.200000    0.00408163  70 t-inv F
  0.000000  0.428571  0.200000    0.00408163  71 t-inv F
  0.142857  0.428571  0.200000    0.00408163  72 t-inv F
  0.285714  0.428571  0.200000    0.00408163  73 t-inv F
  0.428571  0.428571  0.200000    0.00408163  74 t-inv F
 -0.428571  0.428571  0.200000    0.00408163  75 t-inv F
 -0.285714  0.428571  0.200000    0.00408163  76 t-inv F
 -0.142857  0.428571  0.200000    0.00408163  77 t-inv F
  0.000000 -0.428571  0.200000    0.00408163  78 t-inv F
  0.142857 -0.428571  0.200000    0.00408163  79 t-inv F
  0.285714 -0.428571  0.200000    0.00408163  80 t-inv F
  0.428571 -0.428571  0.200000    0.00408163  81 t-inv F
 -0.428571 -0.428571  0.200000    0.00408163  82 t-inv F
 -0.285714 -0.428571  0.200000    0.00408163  83 t-inv F
 -0.142857 -0.428571  0.200000    0.00408163  84 t-inv F
  0.000000 -0.285714  0.200000    0.00408163  85 t-inv F
  0.142857 -0.285714  0.200000    0.00408163  86 t-inv F
  0.285714 -0.285714  0.200000    0.00408163  87 t-inv F
  0.428571 -0.285714  0.200000    0.00408163  88 t-inv F
 -0.428571 -0.285714  0.200000    0.00408163  89 t-inv F
 -0.285714 -0.285714  0.200000    0.00408163  90 t-inv F
 -0.142857 -0.285714  0.200000    0.00408163  91 t-inv F
  0.000000 -0.142857  0.200000    0.00408163  92 t-inv F
  0.142857 -0.142857  0.200000    0.00408163  93 t-inv F
  0.285714 -0.142857  0.200000    0.00408163  94 t-inv F
  0.428571 -0.142857  0.200000    0.00408163  95 t-inv F
 -0.428571 -0.142857  0.200000    0.00408163  96 t-inv F
 -0.285714 -0.142857  0.200000    0.00408163  97 t-inv F
 -0.142857 -0.142857  0.200000    0.00408163  98 t-inv F
  0.000000  0.000000  0.400000    0.00408163  99 t-inv F
  0.142857  0.000000  0.400000    0.00408163 100 t-inv F
  0.285714  0.000000  0.400000    0.00408163 101 t-inv F
  0.428571  0.000000  0.400000    0.00408163 102 t-inv F
 -0.428571  0.000000  0.400000    0.00408163 103 t-inv F
 -0.285714  0.000000  0.400000    0.00408163 104 t-inv F
 -0.142857  0.000000  0.400000    0.00408163 105 t-inv F
  0.000000  0.142857  0.400000    0.00408163 106 t-inv F
  0.142857  0.142857  0.400000    0.00408163 107 t-inv F
  0.285714  0.142857  0.400000    0.00408163 108 t-inv F
  0.428571  0.142857  0.400000    0.00408163 109 t-inv F
 -0.428571  0.142857  0.400000    0.00408163 110 t-inv F
 -0.285714  0.142857  0.400000    0.00408163 111 t-inv F
 -0.142857  0.142857  0.400000    0.00408163 112 t-inv F
  0.000000  0.285714  0.400000    0.00408163 113 t-inv F
  0.142857  0.285714  0.400000    0.00408163 114 t-inv F
  0.285714  0.285714  0.400000    0.00408163 115 t-inv F
  0.428571  0.285714  0.400000    0.00408163 116 t-inv F
 -0.428571  0.285714  0.400000    0.00408163 117 t-inv F
 -0.285714  0.285714  0.400000    0.00408163 118 t-inv F
 -0.142857  0.285714  0.400000    0.00408163 119 t-inv F
  0.000000  0.428571  0.400000    0.00408163 120 t-inv F
  0.142857  0.428571  0.400000    0.00408163 121 t-inv F
  0.285714  0.428571  0.400000    0.00408163 122 t-inv F
  0.428571  0.428571  0.400000    0.00408163 123 t-inv F
 -0.428571  0.428571  0.400000    0.00408163 124 t-inv F
 -0.285714  0.428571  0.400000    0.00408163 125 t-inv F
 -0.142857  0.428571  0.400000    0.00408163 126 t-inv F
  0.000000 -0.428571  0.400000    0.00408163 127 t-inv F
  0.142857 -0.428571  0.400000    0.00408163 128 t-inv F
  0.285714 -0.428571  0.400000    0.00408163 129 t-inv F
  0.428571 -0.428571  0.400000    0.00408163 130 t-inv F
 -0.428571 -0.428571  0.400000    0.00408163 131 t-inv F
 -0.285714 -0.428571  0.400000    0.00408163 132 t-inv F
 -0.142857 -0.428571  0.400000    0.00408163 133 t-inv F
  0.000000 -0.285714  0.400000    0.00408163 134 t-inv F
  0.142857 -0.285714  0.400000    0.00408163 135 t-inv F
  0.285714 -0.285714  0.400000    0.00408163 136 t-inv F
  0.428571 -0.285714  0.400000    0.00408163 137 t-inv F
 -0.428571 -0.285714  0.400000    0.00408163 138 t-inv F
 -0.285714 -0.285714  0.400000    0.00408163 139 t-inv F
 -0.142857 -0.285714  0.400000    0.00408163 140 t-inv F
  0.000000 -0.142857  0.400000    0.00408163 141 t-inv F
  0.142857 -0.142857  0.400000    0.00408163 142 t-inv F
  0.285714 -0.142857  0.400000    0.00408163 143 t-inv F
  0.428571 -0.142857  0.400000    0.00408163 144 t-inv F
 -0.428571 -0.142857  0.400000    0.00408163 145 t-inv F
 -0.285714 -0.142857  0.400000    0.00408163 146 t-inv F
 -0.142857 -0.142857  0.400000    0.00408163 147 t-inv F
  0.000000  0.000000 -0.400000    0.00408163 148 t-inv F
  0.142857  0.000000 -0.400000    0.00408163 149 t-inv F
  0.285714  0.000000 -0.400000    0.00408163 150 t-inv F
  0.428571  0.000000 -0.400000    0.00408163 151 t-inv F
 -0.428571  0.000000 -0.400000    0.00408163 152 t-inv F
 -0.285714  0.000000 -0.400000    0.00408163 153 t-inv F
 -0.142857  0.000000 -0.400000    0.00408163 154 t-inv F
  0.000000  0.142857 -0.400000    0.00408163 155 t-inv F
  0.142857  0.142857 -0.400000    0.00408163 156 t-inv F
  0.285714  0.142857 -0.400000    0.00408163 157 t-inv F
  0.428571  0.142857 -0.400000    0.00408163 158 t-inv F
 -0.428571  0.142857 -0.400000    0.00408163 159 t-inv F
 -0.285714  0.142857 -0.400000    0.00408163 160 t-inv F
 -0.142857  0.142857 -0.400000    0.00408163 161 t-inv F
  0.000000  0.285714 -0.400000    0.00408163 162 t-inv F
  0.142857  0.285714 -0.400000    0.00408163 163 t-inv F
  0.285714  0.285714 -0.400000    0.00408163 164 t-inv F
  0.428571  0.285714 -0.400000    0.00408163 165 t-inv F
 -0.428571  0.285714 -0.400000    0.00408163 166 t-inv F
 -0.285714  0.285714 -0.400000    0.00408163 167 t-inv F
 -0.142857  0.285714 -0.400000    0.00408163 168 t-inv F
  0.000000  0.428571 -0.400000    0.00408163 169 t-inv F
  0.142857  0.428571 -0.400000    0.00408163 170 t-inv F
  0.285714  0.428571 -0.400000    0.00408163 171 t-inv F
  0.428571  0.428571 -0.400000    0.00408163 172 t-inv F
 -0.428571  0.428571 -0.400000    0.00408163 173 t-inv F
 -0.285714  0.428571 -0.400000    0.00408163 174 t-inv F
 -0.142857  0.428571 -0.400000    0.00408163 175 t-inv F
  0.000000 -0.428571 -0.400000    0.00408163 176 t-inv F
  0.142857 -0.428571 -0.400000    0.00408163 177 t-inv F
  0.285714 -0.428571 -0.400000    0.00408163 178 t-inv F
  0.428571 -0.428571 -0.400000    0.00408163 179 t-inv F
 -0.428571 -0.428571 -0.400000    0.00408163 180 t-inv F
 -0.285714 -0.428571 -0.400000    0.00408163 181 t-inv F
 -0.142857 -0.428571 -0.400000    0.00408163 182 t-inv F
  0.000000 -0.285714 -0.400000    0.00408163 183 t-inv F
  0.142857 -0.285714 -0.400000    0.00408163 184 t-inv F
  0.285714 -0.285714 -0.400000    0.00408163 185 t-inv F
  0.428571 -0.285714 -0.400000    0.00408163 186 t-inv F
 -0.428571 -0.285714 -0.400000    0.00408163 187 t-inv F
 -0.285714 -0.285714 -0.400000    0.00408163 188 t-inv F
 -0.142857 -0.285714 -0.400000    0.00408163 189 t-inv F
  0.000000 -0.142857 -0.400000    0.00408163 190 t-inv F
  0.142857 -0.142857 -0.400000    0.00408163 191 t-inv F
  0.285714 -0.142857 -0.400000    0.00408163 192 t-inv F
  0.428571 -0.142857 -0.400000    0.00408163 193 t-inv F
 -0.428571 -0.142857 -0.400000    0.00408163 194 t-inv F
 -0.285714 -0.142857 -0.400000    0.00408163 195 t-inv F
 -0.142857 -0.142857 -0.400000    0.00408163 196 t-inv F
  0.000000  0.000000 -0.200000    0.00408163 197 t-inv F
  0.142857  0.000000 -0.200000    0.00408163 198 t-inv F
  0.285714  0.000000 -0.200000    0.00408163 199 t-inv F
  0.428571  0.000000 -0.200000    0.00408163 200 t-inv F
 -0.428571  0.000000 -0.200000    0.00408163 201 t-inv F
 -0.285714  0.000000 -0.200000    0.00408163 202 t-inv F
 -0.142857  0.000000 -0.200000    0.00408163 203 t-inv F
  0.000000  0.142857 -0.200000    0.00408163 204 t-inv F
  0.142857  0.142857 -0.200000    0.00408163 205 t-inv F
  0.285714  0.142857 -0.200000    0.00408163 206 t-inv F
  0.428571  0.142857 -0.200000    0.00408163 207 t-inv F
 -0.428571  0.142857 -0.200000    0.00408163 208 t-inv F
 -0.285714  0.142857 -0.200000    0.00408163 209 t-inv F
 -0.142857  0.142857 -0.200000    0.00408163 210 t-inv F
  0.000000  0.285714 -0.200000    0.00408163 211 t-inv F
  0.142857  0.285714 -0.200000    0.00408163 212 t-inv F
  0.285714  0.285714 -0.200000    0.00408163 213 t-inv F
  0.428571  0.285714 -0.200000    0.00408163 214 t-inv F
 -0.428571  0.285714 -0.200000    0.00408163 215 t-inv F
 -0.285714  0.285714 -0.200000    0.00408163 216 t-inv F
 -0.142857  0.285714 -0.200000    0.00408163 217 t-inv F
  0.000000  0.428571 -0.200000    0.00408163 218 t-inv F
  0.142857  0.428571 -0.200000    0.00408163 219 t-inv F
  0.285714  0.428571 -0.200000    0.00408163 220 t-inv F
  0.428571  0.428571 -0.200000    0.00408163 221 t-inv F
 -0.428571  0.428571 -0.200000    0.00408163 222 t-inv F
 -0.285714  0.428571 -0.200000    0.00408163 223 t-inv F
 -0.142857  0.428571 -0.200000    0.00408163 224 t-inv F
  0.000000 -0.428571 -0.200000    0.00408163 225 t-inv F
  0.142857 -0.428571 -0.200000    0.00408163 226 t-inv F
  0.285714 -0.428571 -0.200000    0.00408163 227 t-inv F
  0.428571 -0.428571 -0.200000    0.00408163 228 t-inv F
 -0.428571 -0.428571 -0.200000    0.00408163 229 t-inv F
 -0.285714 -0.428571 -0.200000    0.00408163 230 t-inv F
 -0.142857 -0.428571 -0.200000    0.00408163 231 t-inv F
  0.000000 -0.285714 -0.200000    0.00408163 232 t-inv F
  0.142857 -0.285714 -0.200000    0.00408163 233 t-inv F
  0.285714 -0.285714 -0.200000    0.00408163 234 t-inv F
  0.428571 -0.285714 -0.200000    0.00408163 235 t-inv F
 -0.428571 -0.285714 -0.200000    0.00408163 236 t-inv F
 -0.285714 -0.285714 -0.200000    0.00408163 237 t-inv F
 -0.142857 -0.285714 -0.200000    0.00408163 238 t-inv F
  0.000000 -0.142857 -0.200000    0.00408163 239 t-inv F
  0.142857 -0.142857 -0.200000    0.00408163 240 t-inv F
  0.285714 -0.142857 -0.200000    0.00408163 241 t-inv F
  0.428571 -0.142857 -0.200000    0.00408163 242 t-inv F
 -0.428571 -0.142857 -0.200000    0.00408163 243 t-inv F
 -0.285714 -0.142857 -0.200000    0.00408163 244 t-inv F
 -0.142857 -0.142857 -0.200000    0.00408163 245 t-inv F


--------------------------------------------------------------------------------------------------------




 Dimension of arrays:
   k-points           NKPTS =    245   k-points in BZ     NKDIM =    245   number of bands    NBANDS=    128
   number of dos      NEDOS =   2001   number of ions     NIONS =     20
   non local maximal  LDIM  =      6   non local SUM 2l+1 LMDIM =     18
   total plane-waves  NPLWV =  49152
   max r-space proj   IRMAX =      1   max aug-charges    IRDMAX=  17076
   dimension x,y,z NGX =    32 NGY =   32 NGZ =   48
   dimension x,y,z NGXF=    64 NGYF=   64 NGZF=   96
   support grid    NGXF=    64 NGYF=   64 NGZF=   96
   ions per type =               4   4  12
   NGX,Y,Z   is equivalent  to a cutoff of   9.78,  9.82, 10.38 a.u.
   NGXF,Y,Z  is equivalent  to a cutoff of  19.56, 19.63, 20.76 a.u.

 SYSTEM =  PrNiO3                                  
 POSCAR =  PrNiO3                                  

 Startparameter for this run:
   NWRITE =      2    write-flag & timer
   PREC   = normal    normal or accurate (medium, high low for compatibility)
   ISTART =      0    job   : 0-new  1-cont  2-samecut
   ICHARG =      5    charge: 1-file 2-atom 10-const
   ISPIN  =      1    spin polarized calculation?
   LNONCOLLINEAR =      F non collinear calculations
   LSORBIT =      F    spin-orbit coupling
   INIWAV =      1    electr: 0-lowe 1-rand  2-diag
   LASPH  =      F    aspherical Exc in radial PAW
   METAGGA=      F    non-selfconsistent MetaGGA calc.

 Electronic Relaxation 1
   ENCUT  =  550.0 eV  40.42 Ry    6.36 a.u.  10.40 10.36 14.70*2*pi/ulx,y,z
   ENINI  =  550.0     initial cutoff
   ENAUG  =  703.4 eV  augmentation charge cutoff
   NELM   =   1000;   NELMIN=***; NELMDL=-12     # of ELM steps 
   EDIFF  = 0.1E-03   stopping-criterion for ELM
   LREAL  =      F    real-space projection
   NLSPLINE    = F    spline interpolate recip. space projectors
   LCOMPAT=      F    compatible to vasp.4.4
   GGA_COMPAT  = T    GGA compatible to vasp.4.4-vasp.4.6
   LMAXPAW     = -100 max onsite density
   LMAXMIX     =    6 max onsite mixed and CHGCAR
   VOSKOWN=      0    Vosko Wilk Nusair interpolation
   ROPT   =    0.00000   0.00000   0.00000
 Ionic relaxation
   EDIFFG = 0.1E-02   stopping-criterion for IOM
   NSW    =      0    number of steps for IOM
   NBLOCK =      1;   KBLOCK =      1    inner block; outer block 
   IBRION =     -1    ionic relax: 0-MD 1-quasi-New 2-CG
   NFREE  =      0    steps in history (QN), initial steepest desc. (CG)
   ISIF   =      2    stress and relaxation
   IWAVPR =     10    prediction:  0-non 1-charg 2-wave 3-comb
   ISYM   =     -1    0-nonsym 1-usesym 2-fastsym
   LCORR  =      T    Harris-Foulkes like correction to forces

   POTIM  = 0.5000    time-step for ionic-motion
   TEIN   =    0.0    initial temperature
   TEBEG  =    0.0;   TEEND  =   0.0 temperature during run
   SMASS  =  -3.00    Nose mass-parameter (am)
   estimated Nose-frequenzy (Omega)   =  0.10E-29 period in steps =****** mass=  -0.676E-27a.u.
   SCALEE = 1.0000    scale energy and forces
   NPACO  =    256;   APACO  = 16.0  distance and # of slots for P.C.
   PSTRESS=    0.0 pullay stress

  Mass of Ions in am
   POMASS = 140.91 58.69 16.00
  Ionic Valenz
   ZVAL   =  11.00 16.00  6.00
  Atomic Wigner-Seitz radii
   RWIGS  =  -1.00 -1.00 -1.00
  virtual crystal weights 
   VCA    =   1.00  1.00  1.00
   NELECT =     180.0000    total number of electrons
   NUPDOWN=      -1.0000    fix difference up-down

 DOS related values:
   EMIN   =  -1.50;   EMAX   =  2.50  energy-range for DOS
   EFERMI =   0.00
   ISMEAR =    -5;   SIGMA  =   0.01  broadening in eV -4-tet -1-fermi 0-gaus

 Electronic relaxation 2 (details)
   IALGO  =     38    algorithm
   LDIAG  =      T    sub-space diagonalisation (order eigenvalues)
   LSUBROT=      F    optimize rotation matrix (better conditioning)
   TURBO    =      0    0=normal 1=particle mesh
   IRESTART =      0    0=no restart 2=restart with 2 vectors
   NREBOOT  =      0    no. of reboots
   NMIN     =      0    reboot dimension
   EREF     =   0.00    reference energy to select bands
   IMIX   =      4    mixing-type and parameters
     AMIX     =   0.40;   BMIX     =  1.00
     AMIX_MAG =   1.60;   BMIX_MAG =  1.00
     AMIN     =   0.10
     WC   =   100.;   INIMIX=   1;  MIXPRE=   1;  MAXMIX= -45

 Intra band minimization:
   WEIMIN = 0.0000     energy-eigenvalue tresh-hold
   EBREAK =  0.20E-06  absolut break condition
   DEPER  =   0.30     relativ break condition  

   TIME   =   0.40     timestep for ELM

  volume/ion in A,a.u.               =      11.33        76.47
  Fermi-wavevector in a.u.,A,eV,Ry     =   1.516078  2.864972 31.272880  2.298492
  Thomas-Fermi vector in A             =   2.625516

 Write flags
   LWAVE        =      T    write WAVECAR
   LDOWNSAMPLE  =      F    k-point downsampling of WAVECAR
   LCHARG       =      T    write CHGCAR
   LVTOT        =      F    write LOCPOT, total local potential
   LVHAR        =      F    write LOCPOT, Hartree potential only
   LELF         =      F    write electronic localiz. function (ELF)
   LORBIT       =     14    0 simple, 1 ext, 2 COOP (PROOUT), +10 PAW based schemes


 Dipole corrections
   LMONO  =      F    monopole corrections only (constant potential shift)
   LDIPOL =      F    correct potential (dipole corrections)
   IDIPOL =      0    1-x, 2-y, 3-z, 4-all directions 
   EPSILON=  1.0000000 bulk dielectric constant

 Exchange correlation treatment:
   GGA     =    --    GGA type
   LEXCH   =     8    internal setting for exchange type
   VOSKOWN=      0    Vosko Wilk Nusair interpolation
   LHFCALC =     F    Hartree Fock is set to
   LHFONE  =     F    Hartree Fock one center treatment
   AEXX    =    0.0000 exact exchange contribution

 Linear response parameters
   LEPSILON=     F    determine dielectric tensor
   LRPA    =     F    only Hartree local field effects (RPA)
   LNABLA  =     F    use nabla operator in PAW spheres
   LVEL    =     F    velocity operator in full k-point grid
   LINTERFAST=   F  fast interpolation
   KINTER  =     0    interpolate to denser k-point grid
   CSHIFT  =0.1000    complex shift for real part using Kramers Kronig
   OMEGAMAX=  -1.0    maximum frequency
   DEG_THRESHOLD= 0.2000000E-02 threshold for treating states as degnerate
   RTIME   =   -0.100 relaxation time in fs
  (WPLASMAI=    0.000 imaginary part of plasma frequency in eV, 0.658/RTIME)
   DFIELD  = 0.0000000 0.0000000 0.0000000 field for delta impulse in time

 Orbital magnetization related:
   ORBITALMAG=     F  switch on orbital magnetization
   LCHIMAG   =     F  perturbation theory with respect to B field
   DQ        =  0.001000  dq finite difference perturbation B field
   LLRAUG    =     F  two centre corrections for induced B field



--------------------------------------------------------------------------------------------------------


 Static calculation
 charge density and potential will be updated during run
 non-spin polarized calculation
 Variant of blocked Davidson
 Davidson routine will perform the subspace rotation
 perform sub-space diagonalisation
    after iterative eigenvector-optimisation
 modified Broyden-mixing scheme, WC =      100.0
 initial mixing is a Kerker type mixing with AMIX =  0.4000 and BMIX =      1.0000
 Hartree-type preconditioning will be used
 using additional bands           38
 reciprocal scheme for non local part
 use partial core corrections
 calculate Harris-corrections to forces   (improved forces if not selfconsistent)
 use gradient corrections 
 use of overlap-Matrix (Vanderbilt PP)
 Fermi weights with tetrahedron method with Bloechl corrections


--------------------------------------------------------------------------------------------------------


  energy-cutoff  :      550.00
  volume of cell :      226.64
      direct lattice vectors                 reciprocal lattice vectors
     5.440290838 -0.000000000  0.000000000     0.183813702 -0.000000000  0.000000000
     0.000000000  5.419716597  0.000000000     0.000000000  0.184511493 -0.000000000
     0.000000000  0.000000000  7.686592486    -0.000000000  0.000000000  0.130096659

  length of vectors
     5.440290838  5.419716597  7.686592486     0.183813702  0.184511493  0.130096659



 k-points in units of 2pi/SCALE and weight: Automatic kpoint scheme                 
   0.00000000  0.00000000  0.00000000       0.004
   0.02625910  0.00000000  0.00000000       0.004
   0.05251820  0.00000000  0.00000000       0.004
   0.07877730  0.00000000  0.00000000       0.004
  -0.07877730  0.00000000  0.00000000       0.004
  -0.05251820  0.00000000  0.00000000       0.004
  -0.02625910  0.00000000  0.00000000       0.004
   0.00000000  0.02635878  0.00000000       0.004
   0.02625910  0.02635878  0.00000000       0.004
   0.05251820  0.02635878  0.00000000       0.004
   0.07877730  0.02635878  0.00000000       0.004
  -0.07877730  0.02635878  0.00000000       0.004
  -0.05251820  0.02635878  0.00000000       0.004
  -0.02625910  0.02635878  0.00000000       0.004
   0.00000000  0.05271757  0.00000000       0.004
   0.02625910  0.05271757  0.00000000       0.004
   0.05251820  0.05271757  0.00000000       0.004
   0.07877730  0.05271757  0.00000000       0.004
  -0.07877730  0.05271757  0.00000000       0.004
  -0.05251820  0.05271757  0.00000000       0.004
  -0.02625910  0.05271757  0.00000000       0.004
   0.00000000  0.07907635  0.00000000       0.004
   0.02625910  0.07907635  0.00000000       0.004
   0.05251820  0.07907635  0.00000000       0.004
   0.07877730  0.07907635  0.00000000       0.004
  -0.07877730  0.07907635  0.00000000       0.004
  -0.05251820  0.07907635  0.00000000       0.004
  -0.02625910  0.07907635  0.00000000       0.004
   0.00000000 -0.07907635  0.00000000       0.004
   0.02625910 -0.07907635  0.00000000       0.004
   0.05251820 -0.07907635  0.00000000       0.004
   0.07877730 -0.07907635  0.00000000       0.004
  -0.07877730 -0.07907635  0.00000000       0.004
  -0.05251820 -0.07907635  0.00000000       0.004
  -0.02625910 -0.07907635  0.00000000       0.004
   0.00000000 -0.05271757  0.00000000       0.004
   0.02625910 -0.05271757  0.00000000       0.004
   0.05251820 -0.05271757  0.00000000       0.004
   0.07877730 -0.05271757  0.00000000       0.004
  -0.07877730 -0.05271757  0.00000000       0.004
  -0.05251820 -0.05271757  0.00000000       0.004
  -0.02625910 -0.05271757  0.00000000       0.004
   0.00000000 -0.02635878  0.00000000       0.004
   0.02625910 -0.02635878  0.00000000       0.004
   0.05251820 -0.02635878  0.00000000       0.004
   0.07877730 -0.02635878  0.00000000       0.004
  -0.07877730 -0.02635878  0.00000000       0.004
  -0.05251820 -0.02635878  0.00000000       0.004
  -0.02625910 -0.02635878  0.00000000       0.004
   0.00000000  0.00000000  0.02601933       0.004
   0.02625910  0.00000000  0.02601933       0.004
   0.05251820  0.00000000  0.02601933       0.004
   0.07877730  0.00000000  0.02601933       0.004
  -0.07877730  0.00000000  0.02601933       0.004
  -0.05251820  0.00000000  0.02601933       0.004
  -0.02625910  0.00000000  0.02601933       0.004
   0.00000000  0.02635878  0.02601933       0.004
   0.02625910  0.02635878  0.02601933       0.004
   0.05251820  0.02635878  0.02601933       0.004
   0.07877730  0.02635878  0.02601933       0.004
  -0.07877730  0.02635878  0.02601933       0.004
  -0.05251820  0.02635878  0.02601933       0.004
  -0.02625910  0.02635878  0.02601933       0.004
   0.00000000  0.05271757  0.02601933       0.004
   0.02625910  0.05271757  0.02601933       0.004
   0.05251820  0.05271757  0.02601933       0.004
   0.07877730  0.05271757  0.02601933       0.004
  -0.07877730  0.05271757  0.02601933       0.004
  -0.05251820  0.05271757  0.02601933       0.004
  -0.02625910  0.05271757  0.02601933       0.004
   0.00000000  0.07907635  0.02601933       0.004
   0.02625910  0.07907635  0.02601933       0.004
   0.05251820  0.07907635  0.02601933       0.004
   0.07877730  0.07907635  0.02601933       0.004
  -0.07877730  0.07907635  0.02601933       0.004
  -0.05251820  0.07907635  0.02601933       0.004
  -0.02625910  0.07907635  0.02601933       0.004
   0.00000000 -0.07907635  0.02601933       0.004
   0.02625910 -0.07907635  0.02601933       0.004
   0.05251820 -0.07907635  0.02601933       0.004
   0.07877730 -0.07907635  0.02601933       0.004
  -0.07877730 -0.07907635  0.02601933       0.004
  -0.05251820 -0.07907635  0.02601933       0.004
  -0.02625910 -0.07907635  0.02601933       0.004
   0.00000000 -0.05271757  0.02601933       0.004
   0.02625910 -0.05271757  0.02601933       0.004
   0.05251820 -0.05271757  0.02601933       0.004
   0.07877730 -0.05271757  0.02601933       0.004
  -0.07877730 -0.05271757  0.02601933       0.004
  -0.05251820 -0.05271757  0.02601933       0.004
  -0.02625910 -0.05271757  0.02601933       0.004
   0.00000000 -0.02635878  0.02601933       0.004
   0.02625910 -0.02635878  0.02601933       0.004
   0.05251820 -0.02635878  0.02601933       0.004
   0.07877730 -0.02635878  0.02601933       0.004
  -0.07877730 -0.02635878  0.02601933       0.004
  -0.05251820 -0.02635878  0.02601933       0.004
  -0.02625910 -0.02635878  0.02601933       0.004
   0.00000000  0.00000000  0.05203866       0.004
   0.02625910  0.00000000  0.05203866       0.004
   0.05251820  0.00000000  0.05203866       0.004
   0.07877730  0.00000000  0.05203866       0.004
  -0.07877730  0.00000000  0.05203866       0.004
  -0.05251820  0.00000000  0.05203866       0.004
  -0.02625910  0.00000000  0.05203866       0.004
   0.00000000  0.02635878  0.05203866       0.004
   0.02625910  0.02635878  0.05203866       0.004
   0.05251820  0.02635878  0.05203866       0.004
   0.07877730  0.02635878  0.05203866       0.004
  -0.07877730  0.02635878  0.05203866       0.004
  -0.05251820  0.02635878  0.05203866       0.004
  -0.02625910  0.02635878  0.05203866       0.004
   0.00000000  0.05271757  0.05203866       0.004
   0.02625910  0.05271757  0.05203866       0.004
   0.05251820  0.05271757  0.05203866       0.004
   0.07877730  0.05271757  0.05203866       0.004
  -0.07877730  0.05271757  0.05203866       0.004
  -0.05251820  0.05271757  0.05203866       0.004
  -0.02625910  0.05271757  0.05203866       0.004
   0.00000000  0.07907635  0.05203866       0.004
   0.02625910  0.07907635  0.05203866       0.004
   0.05251820  0.07907635  0.05203866       0.004
   0.07877730  0.07907635  0.05203866       0.004
  -0.07877730  0.07907635  0.05203866       0.004
  -0.05251820  0.07907635  0.05203866       0.004
  -0.02625910  0.07907635  0.05203866       0.004
   0.00000000 -0.07907635  0.05203866       0.004
   0.02625910 -0.07907635  0.05203866       0.004
   0.05251820 -0.07907635  0.05203866       0.004
   0.07877730 -0.07907635  0.05203866       0.004
  -0.07877730 -0.07907635  0.05203866       0.004
  -0.05251820 -0.07907635  0.05203866       0.004
  -0.02625910 -0.07907635  0.05203866       0.004
   0.00000000 -0.05271757  0.05203866       0.004
   0.02625910 -0.05271757  0.05203866       0.004
   0.05251820 -0.05271757  0.05203866       0.004
   0.07877730 -0.05271757  0.05203866       0.004
  -0.07877730 -0.05271757  0.05203866       0.004
  -0.05251820 -0.05271757  0.05203866       0.004
  -0.02625910 -0.05271757  0.05203866       0.004
   0.00000000 -0.02635878  0.05203866       0.004
   0.02625910 -0.02635878  0.05203866       0.004
   0.05251820 -0.02635878  0.05203866       0.004
   0.07877730 -0.02635878  0.05203866       0.004
  -0.07877730 -0.02635878  0.05203866       0.004
  -0.05251820 -0.02635878  0.05203866       0.004
  -0.02625910 -0.02635878  0.05203866       0.004
   0.00000000  0.00000000 -0.05203866       0.004
   0.02625910  0.00000000 -0.05203866       0.004
   0.05251820  0.00000000 -0.05203866       0.004
   0.07877730  0.00000000 -0.05203866       0.004
  -0.07877730  0.00000000 -0.05203866       0.004
  -0.05251820  0.00000000 -0.05203866       0.004
  -0.02625910  0.00000000 -0.05203866       0.004
   0.00000000  0.02635878 -0.05203866       0.004
   0.02625910  0.02635878 -0.05203866       0.004
   0.05251820  0.02635878 -0.05203866       0.004
   0.07877730  0.02635878 -0.05203866       0.004
  -0.07877730  0.02635878 -0.05203866       0.004
  -0.05251820  0.02635878 -0.05203866       0.004
  -0.02625910  0.02635878 -0.05203866       0.004
   0.00000000  0.05271757 -0.05203866       0.004
   0.02625910  0.05271757 -0.05203866       0.004
   0.05251820  0.05271757 -0.05203866       0.004
   0.07877730  0.05271757 -0.05203866       0.004
  -0.07877730  0.05271757 -0.05203866       0.004
  -0.05251820  0.05271757 -0.05203866       0.004
  -0.02625910  0.05271757 -0.05203866       0.004
   0.00000000  0.07907635 -0.05203866       0.004
   0.02625910  0.07907635 -0.05203866       0.004
   0.05251820  0.07907635 -0.05203866       0.004
   0.07877730  0.07907635 -0.05203866       0.004
  -0.07877730  0.07907635 -0.05203866       0.004
  -0.05251820  0.07907635 -0.05203866       0.004
  -0.02625910  0.07907635 -0.05203866       0.004
   0.00000000 -0.07907635 -0.05203866       0.004
   0.02625910 -0.07907635 -0.05203866       0.004
   0.05251820 -0.07907635 -0.05203866       0.004
   0.07877730 -0.07907635 -0.05203866       0.004
  -0.07877730 -0.07907635 -0.05203866       0.004
  -0.05251820 -0.07907635 -0.05203866       0.004
  -0.02625910 -0.07907635 -0.05203866       0.004
   0.00000000 -0.05271757 -0.05203866       0.004
   0.02625910 -0.05271757 -0.05203866       0.004
   0.05251820 -0.05271757 -0.05203866       0.004
   0.07877730 -0.05271757 -0.05203866       0.004
  -0.07877730 -0.05271757 -0.05203866       0.004
  -0.05251820 -0.05271757 -0.05203866       0.004
  -0.02625910 -0.05271757 -0.05203866       0.004
   0.00000000 -0.02635878 -0.05203866       0.004
   0.02625910 -0.02635878 -0.05203866       0.004
   0.05251820 -0.02635878 -0.05203866       0.004
   0.07877730 -0.02635878 -0.05203866       0.004
  -0.07877730 -0.02635878 -0.05203866       0.004
  -0.05251820 -0.02635878 -0.05203866       0.004
  -0.02625910 -0.02635878 -0.05203866       0.004
   0.00000000  0.00000000 -0.02601933       0.004
   0.02625910  0.00000000 -0.02601933       0.004
   0.05251820  0.00000000 -0.02601933       0.004
   0.07877730  0.00000000 -0.02601933       0.004
  -0.07877730  0.00000000 -0.02601933       0.004
  -0.05251820  0.00000000 -0.02601933       0.004
  -0.02625910  0.00000000 -0.02601933       0.004
   0.00000000  0.02635878 -0.02601933       0.004
   0.02625910  0.02635878 -0.02601933       0.004
   0.05251820  0.02635878 -0.02601933       0.004
   0.07877730  0.02635878 -0.02601933       0.004
  -0.07877730  0.02635878 -0.02601933       0.004
  -0.05251820  0.02635878 -0.02601933       0.004
  -0.02625910  0.02635878 -0.02601933       0.004
   0.00000000  0.05271757 -0.02601933       0.004
   0.02625910  0.05271757 -0.02601933       0.004
   0.05251820  0.05271757 -0.02601933       0.004
   0.07877730  0.05271757 -0.02601933       0.004
  -0.07877730  0.05271757 -0.02601933       0.004
  -0.05251820  0.05271757 -0.02601933       0.004
  -0.02625910  0.05271757 -0.02601933       0.004
   0.00000000  0.07907635 -0.02601933       0.004
   0.02625910  0.07907635 -0.02601933       0.004
   0.05251820  0.07907635 -0.02601933       0.004
   0.07877730  0.07907635 -0.02601933       0.004
  -0.07877730  0.07907635 -0.02601933       0.004
  -0.05251820  0.07907635 -0.02601933       0.004
  -0.02625910  0.07907635 -0.02601933       0.004
   0.00000000 -0.07907635 -0.02601933       0.004
   0.02625910 -0.07907635 -0.02601933       0.004
   0.05251820 -0.07907635 -0.02601933       0.004
   0.07877730 -0.07907635 -0.02601933       0.004
  -0.07877730 -0.07907635 -0.02601933       0.004
  -0.05251820 -0.07907635 -0.02601933       0.004
  -0.02625910 -0.07907635 -0.02601933       0.004
   0.00000000 -0.05271757 -0.02601933       0.004
   0.02625910 -0.05271757 -0.02601933       0.004
   0.05251820 -0.05271757 -0.02601933       0.004
   0.07877730 -0.05271757 -0.02601933       0.004
  -0.07877730 -0.05271757 -0.02601933       0.004
  -0.05251820 -0.05271757 -0.02601933       0.004
  -0.02625910 -0.05271757 -0.02601933       0.004
   0.00000000 -0.02635878 -0.02601933       0.004
   0.02625910 -0.02635878 -0.02601933       0.004
   0.05251820 -0.02635878 -0.02601933       0.004
   0.07877730 -0.02635878 -0.02601933       0.004
  -0.07877730 -0.02635878 -0.02601933       0.004
  -0.05251820 -0.02635878 -0.02601933       0.004
  -0.02625910 -0.02635878 -0.02601933       0.004

 k-points in reciprocal lattice and weights: Automatic kpoint scheme                 
   0.00000000  0.00000000  0.00000000       0.004
   0.14285714  0.00000000  0.00000000       0.004
   0.28571429  0.00000000  0.00000000       0.004
   0.42857143  0.00000000  0.00000000       0.004
  -0.42857143  0.00000000  0.00000000       0.004
  -0.28571429  0.00000000  0.00000000       0.004
  -0.14285714  0.00000000  0.00000000       0.004
   0.00000000  0.14285714  0.00000000       0.004
   0.14285714  0.14285714  0.00000000       0.004
   0.28571429  0.14285714  0.00000000       0.004
   0.42857143  0.14285714  0.00000000       0.004
  -0.42857143  0.14285714  0.00000000       0.004
  -0.28571429  0.14285714  0.00000000       0.004
  -0.14285714  0.14285714  0.00000000       0.004
   0.00000000  0.28571429  0.00000000       0.004
   0.14285714  0.28571429  0.00000000       0.004
   0.28571429  0.28571429  0.00000000       0.004
   0.42857143  0.28571429  0.00000000       0.004
  -0.42857143  0.28571429  0.00000000       0.004
  -0.28571429  0.28571429  0.00000000       0.004
  -0.14285714  0.28571429  0.00000000       0.004
   0.00000000  0.42857143  0.00000000       0.004
   0.14285714  0.42857143  0.00000000       0.004
   0.28571429  0.42857143  0.00000000       0.004
   0.42857143  0.42857143  0.00000000       0.004
  -0.42857143  0.42857143  0.00000000       0.004
  -0.28571429  0.42857143  0.00000000       0.004
  -0.14285714  0.42857143  0.00000000       0.004
   0.00000000 -0.42857143  0.00000000       0.004
   0.14285714 -0.42857143  0.00000000       0.004
   0.28571429 -0.42857143  0.00000000       0.004
   0.42857143 -0.42857143  0.00000000       0.004
  -0.42857143 -0.42857143  0.00000000       0.004
  -0.28571429 -0.42857143  0.00000000       0.004
  -0.14285714 -0.42857143  0.00000000       0.004
   0.00000000 -0.28571429  0.00000000       0.004
   0.14285714 -0.28571429  0.00000000       0.004
   0.28571429 -0.28571429  0.00000000       0.004
   0.42857143 -0.28571429  0.00000000       0.004
  -0.42857143 -0.28571429  0.00000000       0.004
  -0.28571429 -0.28571429  0.00000000       0.004
  -0.14285714 -0.28571429  0.00000000       0.004
   0.00000000 -0.14285714  0.00000000       0.004
   0.14285714 -0.14285714  0.00000000       0.004
   0.28571429 -0.14285714  0.00000000       0.004
   0.42857143 -0.14285714  0.00000000       0.004
  -0.42857143 -0.14285714  0.00000000       0.004
  -0.28571429 -0.14285714  0.00000000       0.004
  -0.14285714 -0.14285714  0.00000000       0.004
   0.00000000  0.00000000  0.20000000       0.004
   0.14285714  0.00000000  0.20000000       0.004
   0.28571429  0.00000000  0.20000000       0.004
   0.42857143  0.00000000  0.20000000       0.004
  -0.42857143  0.00000000  0.20000000       0.004
  -0.28571429  0.00000000  0.20000000       0.004
  -0.14285714  0.00000000  0.20000000       0.004
   0.00000000  0.14285714  0.20000000       0.004
   0.14285714  0.14285714  0.20000000       0.004
   0.28571429  0.14285714  0.20000000       0.004
   0.42857143  0.14285714  0.20000000       0.004
  -0.42857143  0.14285714  0.20000000       0.004
  -0.28571429  0.14285714  0.20000000       0.004
  -0.14285714  0.14285714  0.20000000       0.004
   0.00000000  0.28571429  0.20000000       0.004
   0.14285714  0.28571429  0.20000000       0.004
   0.28571429  0.28571429  0.20000000       0.004
   0.42857143  0.28571429  0.20000000       0.004
  -0.42857143  0.28571429  0.20000000       0.004
  -0.28571429  0.28571429  0.20000000       0.004
  -0.14285714  0.28571429  0.20000000       0.004
   0.00000000  0.42857143  0.20000000       0.004
   0.14285714  0.42857143  0.20000000       0.004
   0.28571429  0.42857143  0.20000000       0.004
   0.42857143  0.42857143  0.20000000       0.004
  -0.42857143  0.42857143  0.20000000       0.004
  -0.28571429  0.42857143  0.20000000       0.004
  -0.14285714  0.42857143  0.20000000       0.004
   0.00000000 -0.42857143  0.20000000       0.004
   0.14285714 -0.42857143  0.20000000       0.004
   0.28571429 -0.42857143  0.20000000       0.004
   0.42857143 -0.42857143  0.20000000       0.004
  -0.42857143 -0.42857143  0.20000000       0.004
  -0.28571429 -0.42857143  0.20000000       0.004
  -0.14285714 -0.42857143  0.20000000       0.004
   0.00000000 -0.28571429  0.20000000       0.004
   0.14285714 -0.28571429  0.20000000       0.004
   0.28571429 -0.28571429  0.20000000       0.004
   0.42857143 -0.28571429  0.20000000       0.004
  -0.42857143 -0.28571429  0.20000000       0.004
  -0.28571429 -0.28571429  0.20000000       0.004
  -0.14285714 -0.28571429  0.20000000       0.004
   0.00000000 -0.14285714  0.20000000       0.004
   0.14285714 -0.14285714  0.20000000       0.004
   0.28571429 -0.14285714  0.20000000       0.004
   0.42857143 -0.14285714  0.20000000       0.004
  -0.42857143 -0.14285714  0.20000000       0.004
  -0.28571429 -0.14285714  0.20000000       0.004
  -0.14285714 -0.14285714  0.20000000       0.004
   0.00000000  0.00000000  0.40000000       0.004
   0.14285714  0.00000000  0.40000000       0.004
   0.28571429  0.00000000  0.40000000       0.004
   0.42857143  0.00000000  0.40000000       0.004
  -0.42857143  0.00000000  0.40000000       0.004
[...]
  average eigenvalue GAMMA=   0.4570
  3.9250  3.9250  0.8673  0.8673  0.8454  0.6597  0.6597  0.6217  0.6217  0.5334
  0.4149  0.4149  0.3121  0.3121  0.3089  0.3089  0.1404  0.1404  0.3077  0.1546
  0.1546  0.2343  0.2343  0.2253  0.2253  0.1822  0.1822  0.1337  0.1337  0.1595
  0.0995  0.0995  0.0511  0.0511  0.0179  0.0179  0.0020  0.0143  0.0576  0.0576
  0.0625

 Free energy of the ion-electron system (eV)
  ---------------------------------------------------
  alpha Z        PSCENC =      1340.43062464
  Ewald energy   TEWEN  =    -15631.08598208
  -Hartree energ DENC   =     -6941.06159276
  -exchange      EXHF   =         0.00000000
  -V(xc)+E(xc)   XCENC  =       810.09589296
  PAW double counting   =     22205.86182139   -22723.77272430
  entropy T*S    EENTRO =         0.00000000
  eigenvalues    EBANDS =     -2046.84031762
  atomic energy  EATOM  =     22844.04564258
  Solvation  Ediel_sol  =         0.00000000
  ---------------------------------------------------
  free energy    TOTEN  =      -142.32663519 eV

  energy without entropy =     -142.32663519  energy(sigma->0) =     -142.32663519


--------------------------------------------------------------------------------------------------------




--------------------------------------- Iteration      1(  64)  ---------------------------------------


    POTLOK:  cpu time    0.0120: real time    0.0137
    SETDIJ:  cpu time    0.0080: real time    0.0052
    EDDIAG:  cpu time    7.8160: real time    7.8188
     EDDAV:  cpu time   30.5440: real time   30.5466
 BZINTS: Fermi energy:  4.993868;180.000000 electrons
         Band energy:***********;  BLOECHL correction: -0.059212
       DOS:  cpu time   14.7880: real time   14.7905
    CHARGE:  cpu time    2.6280: real time    4.6357
    MIXING:  cpu time    0.0040: real time    0.0042
    --------------------------------------------
      LOOP:  cpu time   55.8000: real time   57.8146

 eigenvalue-minimisations  : 32312
 total energy-change (2. order) :-0.4704160E-04  (-0.7108481E-06)
 number of electron     179.9970760 magnetization 
 augmentation part       46.8109655 magnetization 

 Broyden mixing:
  rms(total) = 0.34558E-01    rms(broyden)= 0.34518E-01
  rms(prec ) = 0.41884E-01
  weight for this iteration     100.00

 eigenvalues of (default mixing * dielectric matrix)
  average eigenvalue GAMMA=   0.4523
  3.9292  3.9292  0.8432  0.8432  0.8160  0.7206  0.7206  0.6142  0.6142  0.5619
  0.4130  0.4130  0.3146  0.3146  0.3072  0.3072  0.3107  0.1681  0.1681  0.2456
  0.2456  0.1530  0.1530  0.2303  0.2303  0.1572  0.1572  0.0350  0.1342  0.1342
  0.1509  0.1509  0.0004  0.0078  0.0559  0.0559  0.0314  0.0314  0.0540  0.0540
  0.1240  0.0933

 Free energy of the ion-electron system (eV)
  ---------------------------------------------------
  alpha Z        PSCENC =      1340.43062464
  Ewald energy   TEWEN  =    -15631.08598208
  -Hartree energ DENC   =     -6940.97264986
  -exchange      EXHF   =         0.00000000
  -V(xc)+E(xc)   XCENC  =       810.09257539
  PAW double counting   =     22205.31716652   -22723.22716121
  entropy T*S    EENTRO =         0.00000000
  eigenvalues    EBANDS =     -2046.92689821
  atomic energy  EATOM  =     22844.04564258
  Solvation  Ediel_sol  =         0.00000000
  ---------------------------------------------------
  free energy    TOTEN  =      -142.32668223 eV

  energy without entropy =     -142.32668223  energy(sigma->0) =     -142.32668223


--------------------------------------------------------------------------------------------------------




--------------------------------------- Iteration      1(  65)  ---------------------------------------


    POTLOK:  cpu time    0.0160: real time    0.0133
    SETDIJ:  cpu time    0.0040: real time    0.0051
    EDDIAG:  cpu time    7.8800: real time    7.8792
     EDDAV:  cpu time   30.5600: real time   30.5628
 BZINTS: Fermi energy:  4.993978;180.000000 electrons
         Band energy:***********;  BLOECHL correction: -0.059211
       DOS:  cpu time   14.8280: real time   14.8318
    CHARGE:  cpu time    2.6240: real time    4.6315
    MIXING:  cpu time    0.0040: real time    0.0043
    --------------------------------------------
      LOOP:  cpu time   55.9160: real time   57.9281

 eigenvalue-minimisations  : 32288
 total energy-change (2. order) :-0.4826533E-05  (-0.2539764E-06)
 number of electron     179.9970760 magnetization 
 augmentation part       46.8109718 magnetization 

 Broyden mixing:
  rms(total) = 0.40547E-01    rms(broyden)= 0.40540E-01
  rms(prec ) = 0.49548E-01
  weight for this iteration     100.00

 eigenvalues of (default mixing * dielectric matrix)
  average eigenvalue GAMMA=   0.4543
  3.9447  3.9447  1.0191  1.0191  0.7413  0.7413  0.6364  0.6364  0.5967  0.5967
  0.4177  0.4177  0.3238  0.3238  0.3504  0.1942  0.1942  0.3051  0.3051  0.1018
  0.1383  0.1383  0.1751  0.1751  0.2293  0.2293  0.1796  0.1796  0.1991  0.1991
  0.1636  0.0957  0.0957  0.0003  0.0101  0.0173  0.0576  0.0576  0.1156  0.0362
  0.0691  0.0691  0.0957

 Free energy of the ion-electron system (eV)
  ---------------------------------------------------
  alpha Z        PSCENC =      1340.43062464
  Ewald energy   TEWEN  =    -15631.08598208
  -Hartree energ DENC   =     -6940.98279293
  -exchange      EXHF   =         0.00000000
  -V(xc)+E(xc)   XCENC  =       810.09285733
  PAW double counting   =     22205.41708554   -22723.32546715
  entropy T*S    EENTRO =         0.00000000
  eigenvalues    EBANDS =     -2046.91865498
  atomic energy  EATOM  =     22844.04564258
  Solvation  Ediel_sol  =         0.00000000
  ---------------------------------------------------
  free energy    TOTEN  =      -142.32668705 eV

  energy without entropy =     -142.32668705  energy(sigma->0) =     -142.32668705


--------------------------------------------------------------------------------------------------------




--------------------------------------- Iteration      1(  66)  ---------------------------------------


    POTLOK:  cpu time    0.0160: real time    0.0133
    SETDIJ:  cpu time    0.0040: real time    0.0051
    EDDIAG:  cpu time    7.9200: real time    7.9195
     EDDAV:  cpu time   30.5400: real time   30.5465
 BZINTS: Fermi energy:  4.994077;180.000000 electrons
         Band energy:***********;  BLOECHL correction: -0.059212
       DOS:  cpu time   14.8680: real time   14.8674
    CHARGE:  cpu time    2.6880: real time    4.7013
    MIXING:  cpu time    0.0040: real time    0.0046
    --------------------------------------------
      LOOP:  cpu time   56.0400: real time   58.0576

 eigenvalue-minimisations  : 32256
 total energy-change (2. order) : 0.1481936E-04  (-0.7246103E-07)
 number of electron     179.9970760 magnetization 
 augmentation part       46.8107704 magnetization 

 Broyden mixing:
  rms(total) = 0.49304E-01    rms(broyden)= 0.49271E-01
  rms(prec ) = 0.60200E-01
  weight for this iteration     100.00

 eigenvalues of (default mixing * dielectric matrix)
  average eigenvalue GAMMA=   0.4502
  3.9521  3.9521  1.0464  1.0464  0.8265  0.8265  0.6415  0.6415  0.5704  0.5704
  0.3910  0.3910  0.3197  0.3197  0.3412  0.3117  0.3117  0.1317  0.1649  0.1649
  0.0749  0.2350  0.2350  0.1493  0.1493  0.2003  0.2003  0.1810  0.1810  0.2007
  0.1708  0.1708  0.1044  0.1044  0.0001  0.0067  0.0532  0.0532  0.0221  0.0413
  0.0755  0.0755  0.1113  0.0930

 Free energy of the ion-electron system (eV)
  ---------------------------------------------------
  alpha Z        PSCENC =      1340.43062464
  Ewald energy   TEWEN  =    -15631.08598208
  -Hartree energ DENC   =     -6940.99093106
  -exchange      EXHF   =         0.00000000
  -V(xc)+E(xc)   XCENC  =       810.09323790
  PAW double counting   =     22205.45655703   -22723.36574438
  entropy T*S    EENTRO =         0.00000000
  eigenvalues    EBANDS =     -2046.91007687
  atomic energy  EATOM  =     22844.04564258
  Solvation  Ediel_sol  =         0.00000000
  ---------------------------------------------------
  free energy    TOTEN  =      -142.32667224 eV

  energy without entropy =     -142.32667224  energy(sigma->0) =     -142.32667224


--------------------------------------------------------------------------------------------------------




--------------------------------------- Iteration      1(  67)  ---------------------------------------


    POTLOK:  cpu time    0.0120: real time    0.0122
    SETDIJ:  cpu time    0.0080: real time    0.0051
    EDDIAG:  cpu time    7.8040: real time    7.8061
     EDDAV:  cpu time   30.6520: real time   30.6533
 BZINTS: Fermi energy:  4.994053;180.000000 electrons
         Band energy:***********;  BLOECHL correction: -0.059212
       DOS:  cpu time   14.8840: real time   14.8846
    CHARGE:  cpu time    2.6360: real time    4.6439
    MIXING:  cpu time    0.0040: real time    0.0044
    --------------------------------------------
      LOOP:  cpu time   56.0000: real time   58.0097

 eigenvalue-minimisations  : 32232
 total energy-change (2. order) : 0.2924547E-05  (-0.2581452E-06)
 number of electron     179.9970760 magnetization 
 augmentation part       46.8106324 magnetization 

 Broyden mixing:
  rms(total) = 0.44868E-01    rms(broyden)= 0.44766E-01
  rms(prec ) = 0.50491E-01
  weight for this iteration     100.00

 eigenvalues of (default mixing * dielectric matrix)
  average eigenvalue GAMMA=   0.3605
  2.1804  2.1804  1.1521  1.1521  0.7236  0.7236  0.6858  0.4044  0.4044  0.3501
  0.3501  0.2140  0.2140  0.3324  0.3015  0.3015  0.2562  0.2562  0.2282  0.2282
  0.1767  0.1767  0.0638  0.1781  0.1781  0.1496  0.1496  0.0991  0.0991  0.1163
  0.1163  0.0260  0.0260  0.0563  0.0563  0.0012  0.0070  0.0070  0.0304  0.0682

 Free energy of the ion-electron system (eV)
  ---------------------------------------------------
  alpha Z        PSCENC =      1340.43062464
  Ewald energy   TEWEN  =    -15631.08598208
  -Hartree energ DENC   =     -6940.98864809
  -exchange      EXHF   =         0.00000000
  -V(xc)+E(xc)   XCENC  =       810.09321754
  PAW double counting   =     22205.44016926   -22723.34963503
  entropy T*S    EENTRO =         0.00000000
  eigenvalues    EBANDS =     -2046.91205813
  atomic energy  EATOM  =     22844.04564258
  Solvation  Ediel_sol  =         0.00000000
  ---------------------------------------------------
  free energy    TOTEN  =      -142.32666931 eV

  energy without entropy =     -142.32666931  energy(sigma->0) =     -142.32666931


--------------------------------------------------------------------------------------------------------




--------------------------------------- Iteration      1(  68)  ---------------------------------------


    POTLOK:  cpu time    0.0120: real time    0.0122
    SETDIJ:  cpu time    0.0040: real time    0.0051
    EDDIAG:  cpu time    7.8680: real time    7.8680
     EDDAV:  cpu time   30.7080: real time   30.7126
 BZINTS: Fermi energy:  4.996640;180.000000 electrons
         Band energy:***********;  BLOECHL correction: -0.059187
       DOS:  cpu time   14.9000: real time   14.9007
    CHARGE:  cpu time    2.6480: real time    4.6562
    MIXING:  cpu time    0.0040: real time    0.0041
    --------------------------------------------
      LOOP:  cpu time   56.1440: real time   58.1587

 eigenvalue-minimisations  : 32224
 total energy-change (2. order) : 0.2195778E-03  (-0.3467630E-05)
 number of electron     179.9970760 magnetization 
 augmentation part       46.8076924 magnetization 

 Broyden mixing:
  rms(total) = 0.35472E-01    rms(broyden)= 0.35412E-01
  rms(prec ) = 0.44672E-01
  weight for this iteration     100.00

 eigenvalues of (default mixing * dielectric matrix)
  average eigenvalue GAMMA=   0.3636
  1.9519  1.9519  1.2271  1.2271  0.7898  0.7898  0.5164  0.5164  0.3790  0.3790
  0.5108  0.3978  0.3978  0.2950  0.2950  0.2821  0.2821  0.2978  0.0772  0.2051
  0.2051  0.2164  0.2164  0.1571  0.1571  0.0977  0.0977  0.1845  0.1498  0.1498
  0.1160  0.0807  0.0807  0.0681  0.0681  0.0014  0.0014  0.0119  0.0119  0.0432
  0.0244

 Free energy of the ion-electron system (eV)
  ---------------------------------------------------
  alpha Z        PSCENC =      1340.43062464
  Ewald energy   TEWEN  =    -15631.08598208
  -Hartree energ DENC   =     -6941.23320312
  -exchange      EXHF   =         0.00000000
  -V(xc)+E(xc)   XCENC  =       810.10203191
  PAW double counting   =     22206.81726175   -22724.73329395
  entropy T*S    EENTRO =         0.00000000
  eigenvalues    EBANDS =     -2046.66953147
  atomic energy  EATOM  =     22844.04564258
  Solvation  Ediel_sol  =         0.00000000
  ---------------------------------------------------
  free energy    TOTEN  =      -142.32644973 eV

  energy without entropy =     -142.32644973  energy(sigma->0) =     -142.32644973


--------------------------------------------------------------------------------------------------------




--------------------------------------- Iteration      1(  69)  ---------------------------------------


    POTLOK:  cpu time    0.0120: real time    0.0122
    SETDIJ:  cpu time    0.0040: real time    0.0051
    EDDIAG:  cpu time    7.8560: real time    7.8573
     EDDAV:  cpu time   30.7400: real time   30.7406
 BZINTS: Fermi energy:  4.997244;180.000000 electrons
         Band energy:***********;  BLOECHL correction: -0.059183
       DOS:  cpu time   14.8920: real time   14.8940
    CHARGE:  cpu time    3.0440: real time    5.0552
    MIXING:  cpu time    0.0080: real time    0.0042
    --------------------------------------------
      LOOP:  cpu time   56.5560: real time   58.5686

 eigenvalue-minimisations  : 32224
 total energy-change (2. order) :-0.7540185E-05  (-0.1304850E-05)
 number of electron     179.9970760 magnetization 
 augmentation part       46.8062425 magnetization 

 Broyden mixing:
  rms(total) = 0.19228E-01    rms(broyden)= 0.19135E-01
  rms(prec ) = 0.23189E-01
  weight for this iteration     100.00

 eigenvalues of (default mixing * dielectric matrix)
  average eigenvalue GAMMA=   0.3665
  1.8663  1.8663  1.1837  1.1837  0.9511  0.9511  0.6943  0.3161  0.3161  0.4806
  0.4806  0.3782  0.3782  0.4289  0.4289  0.3156  0.3156  0.3276  0.2551  0.2551
  0.2015  0.2015  0.1931  0.1931  0.1692  0.1692  0.0989  0.0989  0.0479  0.1001
  0.1001  0.1124  0.0850  0.0850  0.0172  0.0405  0.0405  0.0034  0.0044  0.0044
  0.0201  0.0349

 Free energy of the ion-electron system (eV)
  ---------------------------------------------------
  alpha Z        PSCENC =      1340.43062464
  Ewald energy   TEWEN  =    -15631.08598208
  -Hartree energ DENC   =     -6941.30651118
  -exchange      EXHF   =         0.00000000
  -V(xc)+E(xc)   XCENC  =       810.10538810
  PAW double counting   =     22207.00885370   -22724.92412511
  entropy T*S    EENTRO =         0.00000000
  eigenvalues    EBANDS =     -2046.60034792
  atomic energy  EATOM  =     22844.04564258
  Solvation  Ediel_sol  =         0.00000000
  ---------------------------------------------------
  free energy    TOTEN  =      -142.32645727 eV

  energy without entropy =     -142.32645727  energy(sigma->0) =     -142.32645727


--------------------------------------------------------------------------------------------------------




--------------------------------------- Iteration      1(  70)  ---------------------------------------


    POTLOK:  cpu time    0.0120: real time    0.0122
    SETDIJ:  cpu time    0.0040: real time    0.0051
    EDDIAG:  cpu time    7.8640: real time    7.8638
     EDDAV:  cpu time   30.6600: real time   30.6666
 BZINTS: Fermi energy:  4.997097;180.000000 electrons
         Band energy:***********;  BLOECHL correction: -0.059182
       DOS:  cpu time   14.9040: real time   14.9025
    CHARGE:  cpu time    3.7960: real time    5.8056
    MIXING:  cpu time    0.0040: real time    0.0043
    --------------------------------------------
      LOOP:  cpu time   57.2440: real time   59.2603

 eigenvalue-minimisations  : 32176
 total energy-change (2. order) :-0.4274962E-04  (-0.4150397E-06)
 number of electron     179.9970760 magnetization 
 augmentation part       46.8068404 magnetization 

 Broyden mixing:
  rms(total) = 0.31855E-01    rms(broyden)= 0.31835E-01
  rms(prec ) = 0.37701E-01
  weight for this iteration     100.00

 eigenvalues of (default mixing * dielectric matrix)
  average eigenvalue GAMMA=   0.3705
  1.9937  1.9937  1.2036  1.2036  0.9410  0.9410  0.9070  0.4866  0.4866  0.4294
  0.4294  0.4370  0.4159  0.3203  0.3203  0.2087  0.2087  0.3216  0.2065  0.2065
  0.2409  0.2409  0.2208  0.2208  0.1183  0.1183  0.1523  0.1523  0.1260  0.1260
  0.0989  0.0989  0.0751  0.0751  0.0238  0.0165  0.0165  0.0036  0.0036  0.0426
  0.0426  0.0201  0.0342

 Free energy of the ion-electron system (eV)
  ---------------------------------------------------
  alpha Z        PSCENC =      1340.43062464
  Ewald energy   TEWEN  =    -15631.08598208
  -Hartree energ DENC   =     -6941.29433305
  -exchange      EXHF   =         0.00000000
  -V(xc)+E(xc)   XCENC  =       810.10491062
  PAW double counting   =     22206.95997970   -22724.87430925
  entropy T*S    EENTRO =         0.00000000
  eigenvalues    EBANDS =     -2046.61303318
  atomic energy  EATOM  =     22844.04564258
  Solvation  Ediel_sol  =         0.00000000
  ---------------------------------------------------
  free energy    TOTEN  =      -142.32650002 eV

  energy without entropy =     -142.32650002  energy(sigma->0) =     -142.32650002


--------------------------------------------------------------------------------------------------------




--------------------------------------- Iteration      1(  71)  ---------------------------------------


    POTLOK:  cpu time    0.0120: real time    0.0134
    SETDIJ:  cpu time    0.0040: real time    0.0051
    EDDIAG:  cpu time    7.8280: real time    7.8431
     EDDAV:  cpu time   30.6400: real time   30.6435
 BZINTS: Fermi energy:  4.997258;180.000000 electrons
         Band energy:***********;  BLOECHL correction: -0.059182
       DOS:  cpu time   14.9600: real time   14.9579
    CHARGE:  cpu time    2.6240: real time    4.6349
    MIXING:  cpu time    0.0040: real time    0.0044
    --------------------------------------------
      LOOP:  cpu time   56.0720: real time   58.1022

 eigenvalue-minimisations  : 32144
 total energy-change (2. order) : 0.3026541E-04  (-0.1950674E-06)
 number of electron     179.9970760 magnetization 
 augmentation part       46.8069185 magnetization 

 Broyden mixing:
  rms(total) = 0.51311E-01    rms(broyden)= 0.51270E-01
  rms(prec ) = 0.66464E-01
  weight for this iteration     100.00

 eigenvalues of (default mixing * dielectric matrix)
  average eigenvalue GAMMA=   0.3858
  2.1983  2.1983  1.4913  0.9834  0.9834  0.9903  0.9903  0.5180  0.5180  0.5455
  0.3392  0.3392  0.1809  0.1809  0.3944  0.2989  0.2989  0.3079  0.3079  0.2612
  0.2612  0.2595  0.2406  0.2141  0.2141  0.1793  0.1793  0.0727  0.1242  0.1242
  0.1355  0.1355  0.0886  0.0886  0.0775  0.0775  0.0021  0.0021  0.0156  0.0156
  0.0429  0.0429  0.0195  0.0357

 Free energy of the ion-electron system (eV)
  ---------------------------------------------------
  alpha Z        PSCENC =      1340.43062464
  Ewald energy   TEWEN  =    -15631.08598208
  -Hartree energ DENC   =     -6941.30959626
  -exchange      EXHF   =         0.00000000
  -V(xc)+E(xc)   XCENC  =       810.10549301
  PAW double counting   =     22207.10823707   -22725.02115775
  entropy T*S    EENTRO =         0.00000000
  eigenvalues    EBANDS =     -2046.59973098
  atomic energy  EATOM  =     22844.04564258
  Solvation  Ediel_sol  =         0.00000000
  ---------------------------------------------------
  free energy    TOTEN  =      -142.32646976 eV

  energy without entropy =     -142.32646976  energy(sigma->0) =     -142.32646976


--------------------------------------------------------------------------------------------------------
