
             +---------------------------------------------------+
             |                                                   |
             |                   WANNIER90                       |
             |                                                   |
             +---------------------------------------------------+
             |                                                   |
             |        Welcome to the Maximally-Localized         |
             |        Generalized Wannier Functions code         |
             |            http://www.wannier.org                 |
             |                                                   |
             |                                                   |
             |  Wannier90 Developer Group:                       |
             |    Giovanni Pizzi    (EPFL)                       |
             |    Valerio Vitale    (Cambridge)                  |
             |    David Vanderbilt  (Rutgers University)         |
             |    Nicola Marzari    (EPFL)                       |
             |    Ivo Souza         (Universidad del Pais Vasco) |
             |    Arash A. Mostofi  (Imperial College London)    |
             |    Jonathan R. Yates (University of Oxford)       |
             |                                                   |
             |  For the full list of Wannier90 3.x authors,      |
             |  please check the code documentation and the      |
             |  README on the GitHub page of the code            |
             |                                                   |
             |                                                   |
             |  Please cite                                      |
             |                                                   |
             |  [ref] "Wannier90 as a community code:            |
             |        new features and applications",            |
             |        G. Pizzi et al., J. Phys. Cond. Matt. 32,  |
             |        165902 (2020).                             |
             |        http://doi.org/10.1088/1361-648X/ab51ff    |
             |                                                   |
             |  in any publications arising from the use of      |
             |  this code. For the method please cite            |
             |                                                   |
             |  [ref] "Maximally Localized Generalised Wannier   |
             |         Functions for Composite Energy Bands"     |
             |         N. Marzari and D. Vanderbilt              |
             |         Phys. Rev. B 56 12847 (1997)              |
             |                                                   |
             |  [ref] "Maximally Localized Wannier Functions     |
             |         for Entangled Energy Bands"               |
             |         I. Souza, N. Marzari and D. Vanderbilt    |
             |         Phys. Rev. B 65 035109 (2001)             |
             |                                                   |
             |                                                   |
             | Copyright (c) 1996-2020                           |
             |        The Wannier90 Developer Group and          |
             |        individual contributors                    |
             |                                                   |
             |      Release: 3.1.0        5th March    2020      |
             |                                                   |
             | This program is free software; you can            |
             | redistribute it and/or modify it under the terms  |
             | of the GNU General Public License as published by |
             | the Free Software Foundation; either version 2 of |
             | the License, or (at your option) any later version|
             |                                                   |
             | This program is distributed in the hope that it   |
             | will be useful, but WITHOUT ANY WARRANTY; without |
             | even the implied warranty of MERCHANTABILITY or   |
             | FITNESS FOR A PARTICULAR PURPOSE. See the GNU     |
             | General Public License for more details.          |
             |                                                   |
             | You should have received a copy of the GNU General|
             | Public License along with this program; if not,   |
             | write to the Free Software Foundation, Inc.,      |
             | 675 Mass Ave, Cambridge, MA 02139, USA.           |
             |                                                   |
             +---------------------------------------------------+
             |    Execution started on 27Jan2021 at 19:47:03     |
             +---------------------------------------------------+
 
 ******************************************************************************
 * -> Using CODATA 2006 constant values                                       *
 *    (http://physics.nist.gov/cuu/Constants/index.html)                      *
 * -> Using Bohr value from CODATA                                            *
 ******************************************************************************
 

 Running in serial (with serial executable)

                                    ------
                                    SYSTEM
                                    ------

                              Lattice Vectors (Ang)
                    a_1     3.858560   0.000000   0.000000
                    a_2     0.000000   3.858560   0.000000
                    a_3     0.000000   0.000000   3.858560

                   Unit Cell Volume:      57.44810  (Ang^3)

                        Reciprocal-Space Vectors (Ang^-1)
                    b_1     1.628376   0.000000   0.000000
                    b_2     0.000000   1.628376   0.000000
                    b_3     0.000000   0.000000   1.628376
  
 *----------------------------------------------------------------------------*
 |   Site       Fractional Coordinate          Cartesian Coordinate (Ang)     |
 +----------------------------------------------------------------------------+
 | Sr   1   0.00000   0.00000   0.00000   |    0.00000   0.00000   0.00000    |
 | V    1   0.50000   0.50000   0.50000   |    1.92928   1.92928   1.92928    |
 | O    1   0.50000   0.50000   0.00000   |    1.92928   1.92928   0.00000    |
 | O    2   0.50000   0.00000   0.50000   |    1.92928   0.00000   1.92928    |
 | O    3   0.00000   0.50000   0.50000   |    0.00000   1.92928   1.92928    |
 *----------------------------------------------------------------------------*
                                -----------
                                PROJECTIONS
                                -----------
  
 +----------------------------------------------------------------------------+
 |     Frac. Coord.   l mr  r        z-axis               x-axis          Z/a |
 +----------------------------------------------------------------------------+
 |  0.50  0.50  0.50  2  5  1  0.000  0.000  1.000  1.000  0.000  0.000   1.0 |
 |  0.50  0.50  0.50  2  3  1  0.000  0.000  1.000  1.000  0.000  0.000   1.0 |
 |  0.50  0.50  0.50  2  2  1  0.000  0.000  1.000  1.000  0.000  0.000   1.0 |
 +----------------------------------------------------------------------------+
  
                                ------------
                                K-POINT GRID
                                ------------
  
             Grid size = 17 x 17 x 17      Total points = 4913
  
 *----------------------------------------------------------------------------*
 | k-point      Fractional Coordinate        Cartesian Coordinate (Ang^-1)    |
 +----------------------------------------------------------------------------+
 |     1    0.00000   0.00000   0.00000   |    0.00000   0.00000   0.00000    |
 |     2    0.00000   0.00000   0.05882   |    0.00000   0.00000   0.09579    |
 |     3    0.00000   0.00000   0.11765   |    0.00000   0.00000   0.19157    |
 |     4    0.00000   0.00000   0.17647   |    0.00000   0.00000   0.28736    |
 |     5    0.00000   0.00000   0.23529   |    0.00000   0.00000   0.38315    |
 |     6    0.00000   0.00000   0.29412   |    0.00000   0.00000   0.47893    |
 |     7    0.00000   0.00000   0.35294   |    0.00000   0.00000   0.57472    |
 |     8    0.00000   0.00000   0.41176   |    0.00000   0.00000   0.67051    |
 |     9    0.00000   0.00000   0.47059   |    0.00000   0.00000   0.76629    |
 |    10    0.00000   0.00000   0.52941   |    0.00000   0.00000   0.86208    |
 |    11    0.00000   0.00000   0.58824   |    0.00000   0.00000   0.95787    |
 |    12    0.00000   0.00000   0.64706   |    0.00000   0.00000   1.05365    |
 |    13    0.00000   0.00000   0.70588   |    0.00000   0.00000   1.14944    |
 |    14    0.00000   0.00000   0.76471   |    0.00000   0.00000   1.24523    |
 |    15    0.00000   0.00000   0.82353   |    0.00000   0.00000   1.34102    |
 |    16    0.00000   0.00000   0.88235   |    0.00000   0.00000   1.43680    |
 |    17    0.00000   0.00000   0.94118   |    0.00000   0.00000   1.53259    |
 |    18    0.00000   0.05882   0.00000   |    0.00000   0.09579   0.00000    |
 |    19    0.00000   0.05882   0.05882   |    0.00000   0.09579   0.09579    |
 |    20    0.00000   0.05882   0.11765   |    0.00000   0.09579   0.19157    |
 |    21    0.00000   0.05882   0.17647   |    0.00000   0.09579   0.28736    |
 |    22    0.00000   0.05882   0.23529   |    0.00000   0.09579   0.38315    |
 |    23    0.00000   0.05882   0.29412   |    0.00000   0.09579   0.47893    |
 |    24    0.00000   0.05882   0.35294   |    0.00000   0.09579   0.57472    |
 |    25    0.00000   0.05882   0.41176   |    0.00000   0.09579   0.67051    |
 |    26    0.00000   0.05882   0.47059   |    0.00000   0.09579   0.76629    |
 |    27    0.00000   0.05882   0.52941   |    0.00000   0.09579   0.86208    |
 |    28    0.00000   0.05882   0.58824   |    0.00000   0.09579   0.95787    |
 |    29    0.00000   0.05882   0.64706   |    0.00000   0.09579   1.05365    |
 |    30    0.00000   0.05882   0.70588   |    0.00000   0.09579   1.14944    |
 |    31    0.00000   0.05882   0.76471   |    0.00000   0.09579   1.24523    |
 |    32    0.00000   0.05882   0.82353   |    0.00000   0.09579   1.34102    |
 |    33    0.00000   0.05882   0.88235   |    0.00000   0.09579   1.43680    |
 |    34    0.00000   0.05882   0.94118   |    0.00000   0.09579   1.53259    |
 |    35    0.00000   0.11765   0.00000   |    0.00000   0.19157   0.00000    |
 |    36    0.00000   0.11765   0.05882   |    0.00000   0.19157   0.09579    |
 |    37    0.00000   0.11765   0.11765   |    0.00000   0.19157   0.19157    |
 |    38    0.00000   0.11765   0.17647   |    0.00000   0.19157   0.28736    |
 |    39    0.00000   0.11765   0.23529   |    0.00000   0.19157   0.38315    |
 |    40    0.00000   0.11765   0.29412   |    0.00000   0.19157   0.47893    |
 |    41    0.00000   0.11765   0.35294   |    0.00000   0.19157   0.57472    |
 |    42    0.00000   0.11765   0.41176   |    0.00000   0.19157   0.67051    |
 |    43    0.00000   0.11765   0.47059   |    0.00000   0.19157   0.76629    |
 |    44    0.00000   0.11765   0.52941   |    0.00000   0.19157   0.86208    |
 |    45    0.00000   0.11765   0.58824   |    0.00000   0.19157   0.95787    |
 |    46    0.00000   0.11765   0.64706   |    0.00000   0.19157   1.05365    |
 |    47    0.00000   0.11765   0.70588   |    0.00000   0.19157   1.14944    |
 |    48    0.00000   0.11765   0.76471   |    0.00000   0.19157   1.24523    |
 |    49    0.00000   0.11765   0.82353   |    0.00000   0.19157   1.34102    |
 |    50    0.00000   0.11765   0.88235   |    0.00000   0.19157   1.43680    |
 |    51    0.00000   0.11765   0.94118   |    0.00000   0.19157   1.53259    |
 |    52    0.00000   0.17647   0.00000   |    0.00000   0.28736   0.00000    |
 |    53    0.00000   0.17647   0.05882   |    0.00000   0.28736   0.09579    |
 |    54    0.00000   0.17647   0.11765   |    0.00000   0.28736   0.19157    |
 |    55    0.00000   0.17647   0.17647   |    0.00000   0.28736   0.28736    |
 |    56    0.00000   0.17647   0.23529   |    0.00000   0.28736   0.38315    |
 |    57    0.00000   0.17647   0.29412   |    0.00000   0.28736   0.47893    |
 |    58    0.00000   0.17647   0.35294   |    0.00000   0.28736   0.57472    |
 |    59    0.00000   0.17647   0.41176   |    0.00000   0.28736   0.67051    |
 |    60    0.00000   0.17647   0.47059   |    0.00000   0.28736   0.76629    |
 |    61    0.00000   0.17647   0.52941   |    0.00000   0.28736   0.86208    |
 |    62    0.00000   0.17647   0.58824   |    0.00000   0.28736   0.95787    |
 |    63    0.00000   0.17647   0.64706   |    0.00000   0.28736   1.05365    |
 |    64    0.00000   0.17647   0.70588   |    0.00000   0.28736   1.14944    |
 |    65    0.00000   0.17647   0.76471   |    0.00000   0.28736   1.24523    |
 |    66    0.00000   0.17647   0.82353   |    0.00000   0.28736   1.34102    |
 |    67    0.00000   0.17647   0.88235   |    0.00000   0.28736   1.43680    |
 |    68    0.00000   0.17647   0.94118   |    0.00000   0.28736   1.53259    |
 |    69    0.00000   0.23529   0.00000   |    0.00000   0.38315   0.00000    |
 |    70    0.00000   0.23529   0.05882   |    0.00000   0.38315   0.09579    |
 |    71    0.00000   0.23529   0.11765   |    0.00000   0.38315   0.19157    |
 |    72    0.00000   0.23529   0.17647   |    0.00000   0.38315   0.28736    |
 |    73    0.00000   0.23529   0.23529   |    0.00000   0.38315   0.38315    |
 |    74    0.00000   0.23529   0.29412   |    0.00000   0.38315   0.47893    |
 |    75    0.00000   0.23529   0.35294   |    0.00000   0.38315   0.57472    |
 |    76    0.00000   0.23529   0.41176   |    0.00000   0.38315   0.67051    |
 |    77    0.00000   0.23529   0.47059   |    0.00000   0.38315   0.76629    |
 |    78    0.00000   0.23529   0.52941   |    0.00000   0.38315   0.86208    |
 |    79    0.00000   0.23529   0.58824   |    0.00000   0.38315   0.95787    |
 |    80    0.00000   0.23529   0.64706   |    0.00000   0.38315   1.05365    |
 |    81    0.00000   0.23529   0.70588   |    0.00000   0.38315   1.14944    |
 |    82    0.00000   0.23529   0.76471   |    0.00000   0.38315   1.24523    |
 |    83    0.00000   0.23529   0.82353   |    0.00000   0.38315   1.34102    |
 |    84    0.00000   0.23529   0.88235   |    0.00000   0.38315   1.43680    |
 |    85    0.00000   0.23529   0.94118   |    0.00000   0.38315   1.53259    |
 |    86    0.00000   0.29412   0.00000   |    0.00000   0.47893   0.00000    |
 |    87    0.00000   0.29412   0.05882   |    0.00000   0.47893   0.09579    |
 |    88    0.00000   0.29412   0.11765   |    0.00000   0.47893   0.19157    |
 |    89    0.00000   0.29412   0.17647   |    0.00000   0.47893   0.28736    |
 |    90    0.00000   0.29412   0.23529   |    0.00000   0.47893   0.38315    |
 |    91    0.00000   0.29412   0.29412   |    0.00000   0.47893   0.47893    |
 |    92    0.00000   0.29412   0.35294   |    0.00000   0.47893   0.57472    |
 |    93    0.00000   0.29412   0.41176   |    0.00000   0.47893   0.67051    |
 |    94    0.00000   0.29412   0.47059   |    0.00000   0.47893   0.76629    |
 |    95    0.00000   0.29412   0.52941   |    0.00000   0.47893   0.86208    |
 |    96    0.00000   0.29412   0.58824   |    0.00000   0.47893   0.95787    |
 |    97    0.00000   0.29412   0.64706   |    0.00000   0.47893   1.05365    |
 |    98    0.00000   0.29412   0.70588   |    0.00000   0.47893   1.14944    |
 |    99    0.00000   0.29412   0.76471   |    0.00000   0.47893   1.24523    |
 |   100    0.00000   0.29412   0.82353   |    0.00000   0.47893   1.34102    |
 |   101    0.00000   0.29412   0.88235   |    0.00000   0.47893   1.43680    |
 |   102    0.00000   0.29412   0.94118   |    0.00000   0.47893   1.53259    |
 |   103    0.00000   0.35294   0.00000   |    0.00000   0.57472   0.00000    |
 |   104    0.00000   0.35294   0.05882   |    0.00000   0.57472   0.09579    |
 |   105    0.00000   0.35294   0.11765   |    0.00000   0.57472   0.19157    |
 |   106    0.00000   0.35294   0.17647   |    0.00000   0.57472   0.28736    |
 |   107    0.00000   0.35294   0.23529   |    0.00000   0.57472   0.38315    |
 |   108    0.00000   0.35294   0.29412   |    0.00000   0.57472   0.47893    |
 |   109    0.00000   0.35294   0.35294   |    0.00000   0.57472   0.57472    |
 |   110    0.00000   0.35294   0.41176   |    0.00000   0.57472   0.67051    |
 |   111    0.00000   0.35294   0.47059   |    0.00000   0.57472   0.76629    |
 |   112    0.00000   0.35294   0.52941   |    0.00000   0.57472   0.86208    |
 |   113    0.00000   0.35294   0.58824   |    0.00000   0.57472   0.95787    |
 |   114    0.00000   0.35294   0.64706   |    0.00000   0.57472   1.05365    |
 |   115    0.00000   0.35294   0.70588   |    0.00000   0.57472   1.14944    |
 |   116    0.00000   0.35294   0.76471   |    0.00000   0.57472   1.24523    |
 |   117    0.00000   0.35294   0.82353   |    0.00000   0.57472   1.34102    |
 |   118    0.00000   0.35294   0.88235   |    0.00000   0.57472   1.43680    |
 |   119    0.00000   0.35294   0.94118   |    0.00000   0.57472   1.53259    |
 |   120    0.00000   0.41176   0.00000   |    0.00000   0.67051   0.00000    |
 |   121    0.00000   0.41176   0.05882   |    0.00000   0.67051   0.09579    |
 |   122    0.00000   0.41176   0.11765   |    0.00000   0.67051   0.19157    |
 |   123    0.00000   0.41176   0.17647   |    0.00000   0.67051   0.28736    |
 |   124    0.00000   0.41176   0.23529   |    0.00000   0.67051   0.38315    |
 |   125    0.00000   0.41176   0.29412   |    0.00000   0.67051   0.47893    |
 |   126    0.00000   0.41176   0.35294   |    0.00000   0.67051   0.57472    |
 |   127    0.00000   0.41176   0.41176   |    0.00000   0.67051   0.67051    |
 |   128    0.00000   0.41176   0.47059   |    0.00000   0.67051   0.76629    |
 |   129    0.00000   0.41176   0.52941   |    0.00000   0.67051   0.86208    |
 |   130    0.00000   0.41176   0.58824   |    0.00000   0.67051   0.95787    |
 |   131    0.00000   0.41176   0.64706   |    0.00000   0.67051   1.05365    |
 |   132    0.00000   0.41176   0.70588   |    0.00000   0.67051   1.14944    |
 |   133    0.00000   0.41176   0.76471   |    0.00000   0.67051   1.24523    |
 |   134    0.00000   0.41176   0.82353   |    0.00000   0.67051   1.34102    |
 |   135    0.00000   0.41176   0.88235   |    0.00000   0.67051   1.43680    |
 |   136    0.00000   0.41176   0.94118   |    0.00000   0.67051   1.53259    |
 |   137    0.00000   0.47059   0.00000   |    0.00000   0.76629   0.00000    |
 |   138    0.00000   0.47059   0.05882   |    0.00000   0.76629   0.09579    |
 |   139    0.00000   0.47059   0.11765   |    0.00000   0.76629   0.19157    |
 |   140    0.00000   0.47059   0.17647   |    0.00000   0.76629   0.28736    |
 |   141    0.00000   0.47059   0.23529   |    0.00000   0.76629   0.38315    |
 |   142    0.00000   0.47059   0.29412   |    0.00000   0.76629   0.47893    |
 |   143    0.00000   0.47059   0.35294   |    0.00000   0.76629   0.57472    |
 |   144    0.00000   0.47059   0.41176   |    0.00000   0.76629   0.67051    |
 |   145    0.00000   0.47059   0.47059   |    0.00000   0.76629   0.76629    |
 |   146    0.00000   0.47059   0.52941   |    0.00000   0.76629   0.86208    |
 |   147    0.00000   0.47059   0.58824   |    0.00000   0.76629   0.95787    |
 |   148    0.00000   0.47059   0.64706   |    0.00000   0.76629   1.05365    |
 |   149    0.00000   0.47059   0.70588   |    0.00000   0.76629   1.14944    |
 |   150    0.00000   0.47059   0.76471   |    0.00000   0.76629   1.24523    |
 |   151    0.00000   0.47059   0.82353   |    0.00000   0.76629   1.34102    |
 |   152    0.00000   0.47059   0.88235   |    0.00000   0.76629   1.43680    |
 |   153    0.00000   0.47059   0.94118   |    0.00000   0.76629   1.53259    |
 |   154    0.00000   0.52941   0.00000   |    0.00000   0.86208   0.00000    |
 |   155    0.00000   0.52941   0.05882   |    0.00000   0.86208   0.09579    |
 |   156    0.00000   0.52941   0.11765   |    0.00000   0.86208   0.19157    |
 |   157    0.00000   0.52941   0.17647   |    0.00000   0.86208   0.28736    |
 |   158    0.00000   0.52941   0.23529   |    0.00000   0.86208   0.38315    |
 |   159    0.00000   0.52941   0.29412   |    0.00000   0.86208   0.47893    |
 |   160    0.00000   0.52941   0.35294   |    0.00000   0.86208   0.57472    |
 |   161    0.00000   0.52941   0.41176   |    0.00000   0.86208   0.67051    |
 |   162    0.00000   0.52941   0.47059   |    0.00000   0.86208   0.76629    |
 |   163    0.00000   0.52941   0.52941   |    0.00000   0.86208   0.86208    |
 |   164    0.00000   0.52941   0.58824   |    0.00000   0.86208   0.95787    |
 |   165    0.00000   0.52941   0.64706   |    0.00000   0.86208   1.05365    |
 |   166    0.00000   0.52941   0.70588   |    0.00000   0.86208   1.14944    |
 |   167    0.00000   0.52941   0.76471   |    0.00000   0.86208   1.24523    |
 |   168    0.00000   0.52941   0.82353   |    0.00000   0.86208   1.34102    |
 |   169    0.00000   0.52941   0.88235   |    0.00000   0.86208   1.43680    |
 |   170    0.00000   0.52941   0.94118   |    0.00000   0.86208   1.53259    |
 |   171    0.00000   0.58824   0.00000   |    0.00000   0.95787   0.00000    |
 |   172    0.00000   0.58824   0.05882   |    0.00000   0.95787   0.09579    |
 |   173    0.00000   0.58824   0.11765   |    0.00000   0.95787   0.19157    |
 |   174    0.00000   0.58824   0.17647   |    0.00000   0.95787   0.28736    |
 |   175    0.00000   0.58824   0.23529   |    0.00000   0.95787   0.38315    |
 |   176    0.00000   0.58824   0.29412   |    0.00000   0.95787   0.47893    |
 |   177    0.00000   0.58824   0.35294   |    0.00000   0.95787   0.57472    |
 |   178    0.00000   0.58824   0.41176   |    0.00000   0.95787   0.67051    |
 |   179    0.00000   0.58824   0.47059   |    0.00000   0.95787   0.76629    |
 |   180    0.00000   0.58824   0.52941   |    0.00000   0.95787   0.86208    |
 |   181    0.00000   0.58824   0.58824   |    0.00000   0.95787   0.95787    |
 |   182    0.00000   0.58824   0.64706   |    0.00000   0.95787   1.05365    |
 |   183    0.00000   0.58824   0.70588   |    0.00000   0.95787   1.14944    |
 |   184    0.00000   0.58824   0.76471   |    0.00000   0.95787   1.24523    |
 |   185    0.00000   0.58824   0.82353   |    0.00000   0.95787   1.34102    |
 |   186    0.00000   0.58824   0.88235   |    0.00000   0.95787   1.43680    |
 |   187    0.00000   0.58824   0.94118   |    0.00000   0.95787   1.53259    |
 |   188    0.00000   0.64706   0.00000   |    0.00000   1.05365   0.00000    |
 |   189    0.00000   0.64706   0.05882   |    0.00000   1.05365   0.09579    |
 |   190    0.00000   0.64706   0.11765   |    0.00000   1.05365   0.19157    |
 |   191    0.00000   0.64706   0.17647   |    0.00000   1.05365   0.28736    |
 |   192    0.00000   0.64706   0.23529   |    0.00000   1.05365   0.38315    |
 |   193    0.00000   0.64706   0.29412   |    0.00000   1.05365   0.47893    |
 |   194    0.00000   0.64706   0.35294   |    0.00000   1.05365   0.57472    |
 |   195    0.00000   0.64706   0.41176   |    0.00000   1.05365   0.67051    |
 |   196    0.00000   0.64706   0.47059   |    0.00000   1.05365   0.76629    |
 |   197    0.00000   0.64706   0.52941   |    0.00000   1.05365   0.86208    |
 |   198    0.00000   0.64706   0.58824   |    0.00000   1.05365   0.95787    |
 |   199    0.00000   0.64706   0.64706   |    0.00000   1.05365   1.05365    |
 |   200    0.00000   0.64706   0.70588   |    0.00000   1.05365   1.14944    |
 |   201    0.00000   0.64706   0.76471   |    0.00000   1.05365   1.24523    |
 |   202    0.00000   0.64706   0.82353   |    0.00000   1.05365   1.34102    |
 |   203    0.00000   0.64706   0.88235   |    0.00000   1.05365   1.43680    |
 |   204    0.00000   0.64706   0.94118   |    0.00000   1.05365   1.53259    |
 |   205    0.00000   0.70588   0.00000   |    0.00000   1.14944   0.00000    |
 |   206    0.00000   0.70588   0.05882   |    0.00000   1.14944   0.09579    |
 |   207    0.00000   0.70588   0.11765   |    0.00000   1.14944   0.19157    |
 |   208    0.00000   0.70588   0.17647   |    0.00000   1.14944   0.28736    |
 |   209    0.00000   0.70588   0.23529   |    0.00000   1.14944   0.38315    |
 |   210    0.00000   0.70588   0.29412   |    0.00000   1.14944   0.47893    |
 |   211    0.00000   0.70588   0.35294   |    0.00000   1.14944   0.57472    |
 |   212    0.00000   0.70588   0.41176   |    0.00000   1.14944   0.67051    |
 |   213    0.00000   0.70588   0.47059   |    0.00000   1.14944   0.76629    |
 |   214    0.00000   0.70588   0.52941   |    0.00000   1.14944   0.86208    |
 |   215    0.00000   0.70588   0.58824   |    0.00000   1.14944   0.95787    |
 |   216    0.00000   0.70588   0.64706   |    0.00000   1.14944   1.05365    |
 |   217    0.00000   0.70588   0.70588   |    0.00000   1.14944   1.14944    |
 |   218    0.00000   0.70588   0.76471   |    0.00000   1.14944   1.24523    |
 |   219    0.00000   0.70588   0.82353   |    0.00000   1.14944   1.34102    |
 |   220    0.00000   0.70588   0.88235   |    0.00000   1.14944   1.43680    |
 |   221    0.00000   0.70588   0.94118   |    0.00000   1.14944   1.53259    |
 |   222    0.00000   0.76471   0.00000   |    0.00000   1.24523   0.00000    |
 |   223    0.00000   0.76471   0.05882   |    0.00000   1.24523   0.09579    |
 |   224    0.00000   0.76471   0.11765   |    0.00000   1.24523   0.19157    |
 |   225    0.00000   0.76471   0.17647   |    0.00000   1.24523   0.28736    |
 |   226    0.00000   0.76471   0.23529   |    0.00000   1.24523   0.38315    |
 |   227    0.00000   0.76471   0.29412   |    0.00000   1.24523   0.47893    |
 |   228    0.00000   0.76471   0.35294   |    0.00000   1.24523   0.57472    |
 |   229    0.00000   0.76471   0.41176   |    0.00000   1.24523   0.67051    |
 |   230    0.00000   0.76471   0.47059   |    0.00000   1.24523   0.76629    |
 |   231    0.00000   0.76471   0.52941   |    0.00000   1.24523   0.86208    |
 |   232    0.00000   0.76471   0.58824   |    0.00000   1.24523   0.95787    |
 |   233    0.00000   0.76471   0.64706   |    0.00000   1.24523   1.05365    |
 |   234    0.00000   0.76471   0.70588   |    0.00000   1.24523   1.14944    |
 |   235    0.00000   0.76471   0.76471   |    0.00000   1.24523   1.24523    |
 |   236    0.00000   0.76471   0.82353   |    0.00000   1.24523   1.34102    |
 |   237    0.00000   0.76471   0.88235   |    0.00000   1.24523   1.43680    |
 |   238    0.00000   0.76471   0.94118   |    0.00000   1.24523   1.53259    |
 |   239    0.00000   0.82353   0.00000   |    0.00000   1.34102   0.00000    |
 |   240    0.00000   0.82353   0.05882   |    0.00000   1.34102   0.09579    |
 |   241    0.00000   0.82353   0.11765   |    0.00000   1.34102   0.19157    |
 |   242    0.00000   0.82353   0.17647   |    0.00000   1.34102   0.28736    |
 |   243    0.00000   0.82353   0.23529   |    0.00000   1.34102   0.38315    |
 |   244    0.00000   0.82353   0.29412   |    0.00000   1.34102   0.47893    |
 |   245    0.00000   0.82353   0.35294   |    0.00000   1.34102   0.57472    |
 |   246    0.00000   0.82353   0.41176   |    0.00000   1.34102   0.67051    |
 |   247    0.00000   0.82353   0.47059   |    0.00000   1.34102   0.76629    |
 |   248    0.00000   0.82353   0.52941   |    0.00000   1.34102   0.86208    |
 |   249    0.00000   0.82353   0.58824   |    0.00000   1.34102   0.95787    |
 |   250    0.00000   0.82353   0.64706   |    0.00000   1.34102   1.05365    |
 |   251    0.00000   0.82353   0.70588   |    0.00000   1.34102   1.14944    |
 |   252    0.00000   0.82353   0.76471   |    0.00000   1.34102   1.24523    |
 |   253    0.00000   0.82353   0.82353   |    0.00000   1.34102   1.34102    |
 |   254    0.00000   0.82353   0.88235   |    0.00000   1.34102   1.43680    |
 |   255    0.00000   0.82353   0.94118   |    0.00000   1.34102   1.53259    |
 |   256    0.00000   0.88235   0.00000   |    0.00000   1.43680   0.00000    |
 |   257    0.00000   0.88235   0.05882   |    0.00000   1.43680   0.09579    |
 |   258    0.00000   0.88235   0.11765   |    0.00000   1.43680   0.19157    |
 |   259    0.00000   0.88235   0.17647   |    0.00000   1.43680   0.28736    |
 |   260    0.00000   0.88235   0.23529   |    0.00000   1.43680   0.38315    |
 |   261    0.00000   0.88235   0.29412   |    0.00000   1.43680   0.47893    |
 |   262    0.00000   0.88235   0.35294   |    0.00000   1.43680   0.57472    |
 |   263    0.00000   0.88235   0.41176   |    0.00000   1.43680   0.67051    |
 |   264    0.00000   0.88235   0.47059   |    0.00000   1.43680   0.76629    |
 |   265    0.00000   0.88235   0.52941   |    0.00000   1.43680   0.86208    |
 |   266    0.00000   0.88235   0.58824   |    0.00000   1.43680   0.95787    |
 |   267    0.00000   0.88235   0.64706   |    0.00000   1.43680   1.05365    |
 |   268    0.00000   0.88235   0.70588   |    0.00000   1.43680   1.14944    |
 |   269    0.00000   0.88235   0.76471   |    0.00000   1.43680   1.24523    |
 |   270    0.00000   0.88235   0.82353   |    0.00000   1.43680   1.34102    |
 |   271    0.00000   0.88235   0.88235   |    0.00000   1.43680   1.43680    |
 |   272    0.00000   0.88235   0.94118   |    0.00000   1.43680   1.53259    |
 |   273    0.00000   0.94118   0.00000   |    0.00000   1.53259   0.00000    |
 |   274    0.00000   0.94118   0.05882   |    0.00000   1.53259   0.09579    |
 |   275    0.00000   0.94118   0.11765   |    0.00000   1.53259   0.19157    |
 |   276    0.00000   0.94118   0.17647   |    0.00000   1.53259   0.28736    |
 |   277    0.00000   0.94118   0.23529   |    0.00000   1.53259   0.38315    |
 |   278    0.00000   0.94118   0.29412   |    0.00000   1.53259   0.47893    |
 |   279    0.00000   0.94118   0.35294   |    0.00000   1.53259   0.57472    |
 |   280    0.00000   0.94118   0.41176   |    0.00000   1.53259   0.67051    |
 |   281    0.00000   0.94118   0.47059   |    0.00000   1.53259   0.76629    |
 |   282    0.00000   0.94118   0.52941   |    0.00000   1.53259   0.86208    |
 |   283    0.00000   0.94118   0.58824   |    0.00000   1.53259   0.95787    |
 |   284    0.00000   0.94118   0.64706   |    0.00000   1.53259   1.05365    |
 |   285    0.00000   0.94118   0.70588   |    0.00000   1.53259   1.14944    |
 |   286    0.00000   0.94118   0.76471   |    0.00000   1.53259   1.24523    |
 |   287    0.00000   0.94118   0.82353   |    0.00000   1.53259   1.34102    |
 |   288    0.00000   0.94118   0.88235   |    0.00000   1.53259   1.43680    |
 |   289    0.00000   0.94118   0.94118   |    0.00000   1.53259   1.53259    |
 |   290    0.05882   0.00000   0.00000   |    0.09579   0.00000   0.00000    |
 |   291    0.05882   0.00000   0.05882   |    0.09579   0.00000   0.09579    |
 |   292    0.05882   0.00000   0.11765   |    0.09579   0.00000   0.19157    |
 |   293    0.05882   0.00000   0.17647   |    0.09579   0.00000   0.28736    |
 |   294    0.05882   0.00000   0.23529   |    0.09579   0.00000   0.38315    |
 |   295    0.05882   0.00000   0.29412   |    0.09579   0.00000   0.47893    |
 |   296    0.05882   0.00000   0.35294   |    0.09579   0.00000   0.57472    |
 |   297    0.05882   0.00000   0.41176   |    0.09579   0.00000   0.67051    |
 |   298    0.05882   0.00000   0.47059   |    0.09579   0.00000   0.76629    |
 |   299    0.05882   0.00000   0.52941   |    0.09579   0.00000   0.86208    |
 |   300    0.05882   0.00000   0.58824   |    0.09579   0.00000   0.95787    |
 |   301    0.05882   0.00000   0.64706   |    0.09579   0.00000   1.05365    |
 |   302    0.05882   0.00000   0.70588   |    0.09579   0.00000   1.14944    |
 |   303    0.05882   0.00000   0.76471   |    0.09579   0.00000   1.24523    |
 |   304    0.05882   0.00000   0.82353   |    0.09579   0.00000   1.34102    |
 |   305    0.05882   0.00000   0.88235   |    0.09579   0.00000   1.43680    |
 |   306    0.05882   0.00000   0.94118   |    0.09579   0.00000   1.53259    |
 |   307    0.05882   0.05882   0.00000   |    0.09579   0.09579   0.00000    |
 |   308    0.05882   0.05882   0.05882   |    0.09579   0.09579   0.09579    |
 |   309    0.05882   0.05882   0.11765   |    0.09579   0.09579   0.19157    |
 |   310    0.05882   0.05882   0.17647   |    0.09579   0.09579   0.28736    |
 |   311    0.05882   0.05882   0.23529   |    0.09579   0.09579   0.38315    |
 |   312    0.05882   0.05882   0.29412   |    0.09579   0.09579   0.47893    |
 |   313    0.05882   0.05882   0.35294   |    0.09579   0.09579   0.57472    |
 |   314    0.05882   0.05882   0.41176   |    0.09579   0.09579   0.67051    |
 |   315    0.05882   0.05882   0.47059   |    0.09579   0.09579   0.76629    |
 |   316    0.05882   0.05882   0.52941   |    0.09579   0.09579   0.86208    |
 |   317    0.05882   0.05882   0.58824   |    0.09579   0.09579   0.95787    |
 |   318    0.05882   0.05882   0.64706   |    0.09579   0.09579   1.05365    |
 |   319    0.05882   0.05882   0.70588   |    0.09579   0.09579   1.14944    |
 |   320    0.05882   0.05882   0.76471   |    0.09579   0.09579   1.24523    |
 |   321    0.05882   0.05882   0.82353   |    0.09579   0.09579   1.34102    |
 |   322    0.05882   0.05882   0.88235   |    0.09579   0.09579   1.43680    |
 |   323    0.05882   0.05882   0.94118   |    0.09579   0.09579   1.53259    |
 |   324    0.05882   0.11765   0.00000   |    0.09579   0.19157   0.00000    |
 |   325    0.05882   0.11765   0.05882   |    0.09579   0.19157   0.09579    |
 |   326    0.05882   0.11765   0.11765   |    0.09579   0.19157   0.19157    |
 |   327    0.05882   0.11765   0.17647   |    0.09579   0.19157   0.28736    |
 |   328    0.05882   0.11765   0.23529   |    0.09579   0.19157   0.38315    |
 |   329    0.05882   0.11765   0.29412   |    0.09579   0.19157   0.47893    |
 |   330    0.05882   0.11765   0.35294   |    0.09579   0.19157   0.57472    |
 |   331    0.05882   0.11765   0.41176   |    0.09579   0.19157   0.67051    |
 |   332    0.05882   0.11765   0.47059   |    0.09579   0.19157   0.76629    |
 |   333    0.05882   0.11765   0.52941   |    0.09579   0.19157   0.86208    |
 |   334    0.05882   0.11765   0.58824   |    0.09579   0.19157   0.95787    |
 |   335    0.05882   0.11765   0.64706   |    0.09579   0.19157   1.05365    |
 |   336    0.05882   0.11765   0.70588   |    0.09579   0.19157   1.14944    |
 |   337    0.05882   0.11765   0.76471   |    0.09579   0.19157   1.24523    |
 |   338    0.05882   0.11765   0.82353   |    0.09579   0.19157   1.34102    |
 |   339    0.05882   0.11765   0.88235   |    0.09579   0.19157   1.43680    |
 |   340    0.05882   0.11765   0.94118   |    0.09579   0.19157   1.53259    |
 |   341    0.05882   0.17647   0.00000   |    0.09579   0.28736   0.00000    |
 |   342    0.05882   0.17647   0.05882   |    0.09579   0.28736   0.09579    |
 |   343    0.05882   0.17647   0.11765   |    0.09579   0.28736   0.19157    |
 |   344    0.05882   0.17647   0.17647   |    0.09579   0.28736   0.28736    |
 |   345    0.05882   0.17647   0.23529   |    0.09579   0.28736   0.38315    |
 |   346    0.05882   0.17647   0.29412   |    0.09579   0.28736   0.47893    |
 |   347    0.05882   0.17647   0.35294   |    0.09579   0.28736   0.57472    |
 |   348    0.05882   0.17647   0.41176   |    0.09579   0.28736   0.67051    |
 |   349    0.05882   0.17647   0.47059   |    0.09579   0.28736   0.76629    |
 |   350    0.05882   0.17647   0.52941   |    0.09579   0.28736   0.86208    |
 |   351    0.05882   0.17647   0.58824   |    0.09579   0.28736   0.95787    |
 |   352    0.05882   0.17647   0.64706   |    0.09579   0.28736   1.05365    |
 |   353    0.05882   0.17647   0.70588   |    0.09579   0.28736   1.14944    |
 |   354    0.05882   0.17647   0.76471   |    0.09579   0.28736   1.24523    |
 |   355    0.05882   0.17647   0.82353   |    0.09579   0.28736   1.34102    |
 |   356    0.05882   0.17647   0.88235   |    0.09579   0.28736   1.43680    |
 |   357    0.05882   0.17647   0.94118   |    0.09579   0.28736   1.53259    |
 |   358    0.05882   0.23529   0.00000   |    0.09579   0.38315   0.00000    |
 |   359    0.05882   0.23529   0.05882   |    0.09579   0.38315   0.09579    |
 |   360    0.05882   0.23529   0.11765   |    0.09579   0.38315   0.19157    |
 |   361    0.05882   0.23529   0.17647   |    0.09579   0.38315   0.28736    |
 |   362    0.05882   0.23529   0.23529   |    0.09579   0.38315   0.38315    |
 |   363    0.05882   0.23529   0.29412   |    0.09579   0.38315   0.47893    |
 |   364    0.05882   0.23529   0.35294   |    0.09579   0.38315   0.57472    |
 |   365    0.05882   0.23529   0.41176   |    0.09579   0.38315   0.67051    |
 |   366    0.05882   0.23529   0.47059   |    0.09579   0.38315   0.76629    |
 |   367    0.05882   0.23529   0.52941   |    0.09579   0.38315   0.86208    |
 |   368    0.05882   0.23529   0.58824   |    0.09579   0.38315   0.95787    |
 |   369    0.05882   0.23529   0.64706   |    0.09579   0.38315   1.05365    |
 |   370    0.05882   0.23529   0.70588   |    0.09579   0.38315   1.14944    |
 |   371    0.05882   0.23529   0.76471   |    0.09579   0.38315   1.24523    |
 |   372    0.05882   0.23529   0.82353   |    0.09579   0.38315   1.34102    |
 |   373    0.05882   0.23529   0.88235   |    0.09579   0.38315   1.43680    |
 |   374    0.05882   0.23529   0.94118   |    0.09579   0.38315   1.53259    |
 |   375    0.05882   0.29412   0.00000   |    0.09579   0.47893   0.00000    |
 |   376    0.05882   0.29412   0.05882   |    0.09579   0.47893   0.09579    |
 |   377    0.05882   0.29412   0.11765   |    0.09579   0.47893   0.19157    |
 |   378    0.05882   0.29412   0.17647   |    0.09579   0.47893   0.28736    |
 |   379    0.05882   0.29412   0.23529   |    0.09579   0.47893   0.38315    |
 |   380    0.05882   0.29412   0.29412   |    0.09579   0.47893   0.47893    |
 |   381    0.05882   0.29412   0.35294   |    0.09579   0.47893   0.57472    |
 |   382    0.05882   0.29412   0.41176   |    0.09579   0.47893   0.67051    |
 |   383    0.05882   0.29412   0.47059   |    0.09579   0.47893   0.76629    |
 |   384    0.05882   0.29412   0.52941   |    0.09579   0.47893   0.86208    |
 |   385    0.05882   0.29412   0.58824   |    0.09579   0.47893   0.95787    |
 |   386    0.05882   0.29412   0.64706   |    0.09579   0.47893   1.05365    |
 |   387    0.05882   0.29412   0.70588   |    0.09579   0.47893   1.14944    |
 |   388    0.05882   0.29412   0.76471   |    0.09579   0.47893   1.24523    |
 |   389    0.05882   0.29412   0.82353   |    0.09579   0.47893   1.34102    |
 |   390    0.05882   0.29412   0.88235   |    0.09579   0.47893   1.43680    |
 |   391    0.05882   0.29412   0.94118   |    0.09579   0.47893   1.53259    |
 |   392    0.05882   0.35294   0.00000   |    0.09579   0.57472   0.00000    |
 |   393    0.05882   0.35294   0.05882   |    0.09579   0.57472   0.09579    |
 |   394    0.05882   0.35294   0.11765   |    0.09579   0.57472   0.19157    |
 |   395    0.05882   0.35294   0.17647   |    0.09579   0.57472   0.28736    |
 |   396    0.05882   0.35294   0.23529   |    0.09579   0.57472   0.38315    |
 |   397    0.05882   0.35294   0.29412   |    0.09579   0.57472   0.47893    |
 |   398    0.05882   0.35294   0.35294   |    0.09579   0.57472   0.57472    |
 |   399    0.05882   0.35294   0.41176   |    0.09579   0.57472   0.67051    |
 |   400    0.05882   0.35294   0.47059   |    0.09579   0.57472   0.76629    |
 |   401    0.05882   0.35294   0.52941   |    0.09579   0.57472   0.86208    |
 |   402    0.05882   0.35294   0.58824   |    0.09579   0.57472   0.95787    |
 |   403    0.05882   0.35294   0.64706   |    0.09579   0.57472   1.05365    |
 |   404    0.05882   0.35294   0.70588   |    0.09579   0.57472   1.14944    |
 |   405    0.05882   0.35294   0.76471   |    0.09579   0.57472   1.24523    |
 |   406    0.05882   0.35294   0.82353   |    0.09579   0.57472   1.34102    |
 |   407    0.05882   0.35294   0.88235   |    0.09579   0.57472   1.43680    |
 |   408    0.05882   0.35294   0.94118   |    0.09579   0.57472   1.53259    |
 |   409    0.05882   0.41176   0.00000   |    0.09579   0.67051   0.00000    |
 |   410    0.05882   0.41176   0.05882   |    0.09579   0.67051   0.09579    |
 |   411    0.05882   0.41176   0.11765   |    0.09579   0.67051   0.19157    |
 |   412    0.05882   0.41176   0.17647   |    0.09579   0.67051   0.28736    |
 |   413    0.05882   0.41176   0.23529   |    0.09579   0.67051   0.38315    |
 |   414    0.05882   0.41176   0.29412   |    0.09579   0.67051   0.47893    |
 |   415    0.05882   0.41176   0.35294   |    0.09579   0.67051   0.57472    |
 |   416    0.05882   0.41176   0.41176   |    0.09579   0.67051   0.67051    |
 |   417    0.05882   0.41176   0.47059   |    0.09579   0.67051   0.76629    |
 |   418    0.05882   0.41176   0.52941   |    0.09579   0.67051   0.86208    |
 |   419    0.05882   0.41176   0.58824   |    0.09579   0.67051   0.95787    |
 |   420    0.05882   0.41176   0.64706   |    0.09579   0.67051   1.05365    |
 |   421    0.05882   0.41176   0.70588   |    0.09579   0.67051   1.14944    |
 |   422    0.05882   0.41176   0.76471   |    0.09579   0.67051   1.24523    |
 |   423    0.05882   0.41176   0.82353   |    0.09579   0.67051   1.34102    |
 |   424    0.05882   0.41176   0.88235   |    0.09579   0.67051   1.43680    |
 |   425    0.05882   0.41176   0.94118   |    0.09579   0.67051   1.53259    |
 |   426    0.05882   0.47059   0.00000   |    0.09579   0.76629   0.00000    |
 |   427    0.05882   0.47059   0.05882   |    0.09579   0.76629   0.09579    |
 |   428    0.05882   0.47059   0.11765   |    0.09579   0.76629   0.19157    |
 |   429    0.05882   0.47059   0.17647   |    0.09579   0.76629   0.28736    |
 |   430    0.05882   0.47059   0.23529   |    0.09579   0.76629   0.38315    |
 |   431    0.05882   0.47059   0.29412   |    0.09579   0.76629   0.47893    |
 |   432    0.05882   0.47059   0.35294   |    0.09579   0.76629   0.57472    |
 |   433    0.05882   0.47059   0.41176   |    0.09579   0.76629   0.67051    |
 |   434    0.05882   0.47059   0.47059   |    0.09579   0.76629   0.76629    |
 |   435    0.05882   0.47059   0.52941   |    0.09579   0.76629   0.86208    |
 |   436    0.05882   0.47059   0.58824   |    0.09579   0.76629   0.95787    |
 |   437    0.05882   0.47059   0.64706   |    0.09579   0.76629   1.05365    |
 |   438    0.05882   0.47059   0.70588   |    0.09579   0.76629   1.14944    |
 |   439    0.05882   0.47059   0.76471   |    0.09579   0.76629   1.24523    |
 |   440    0.05882   0.47059   0.82353   |    0.09579   0.76629   1.34102    |
 |   441    0.05882   0.47059   0.88235   |    0.09579   0.76629   1.43680    |
 |   442    0.05882   0.47059   0.94118   |    0.09579   0.76629   1.53259    |
 |   443    0.05882   0.52941   0.00000   |    0.09579   0.86208   0.00000    |
 |   444    0.05882   0.52941   0.05882   |    0.09579   0.86208   0.09579    |
 |   445    0.05882   0.52941   0.11765   |    0.09579   0.86208   0.19157    |
 |   446    0.05882   0.52941   0.17647   |    0.09579   0.86208   0.28736    |
 |   447    0.05882   0.52941   0.23529   |    0.09579   0.86208   0.38315    |
 |   448    0.05882   0.52941   0.29412   |    0.09579   0.86208   0.47893    |
 |   449    0.05882   0.52941   0.35294   |    0.09579   0.86208   0.57472    |
 |   450    0.05882   0.52941   0.41176   |    0.09579   0.86208   0.67051    |
 |   451    0.05882   0.52941   0.47059   |    0.09579   0.86208   0.76629    |
 |   452    0.05882   0.52941   0.52941   |    0.09579   0.86208   0.86208    |
 |   453    0.05882   0.52941   0.58824   |    0.09579   0.86208   0.95787    |
 |   454    0.05882   0.52941   0.64706   |    0.09579   0.86208   1.05365    |
 |   455    0.05882   0.52941   0.70588   |    0.09579   0.86208   1.14944    |
 |   456    0.05882   0.52941   0.76471   |    0.09579   0.86208   1.24523    |
 |   457    0.05882   0.52941   0.82353   |    0.09579   0.86208   1.34102    |
 |   458    0.05882   0.52941   0.88235   |    0.09579   0.86208   1.43680    |
 |   459    0.05882   0.52941   0.94118   |    0.09579   0.86208   1.53259    |
 |   460    0.05882   0.58824   0.00000   |    0.09579   0.95787   0.00000    |
 |   461    0.05882   0.58824   0.05882   |    0.09579   0.95787   0.09579    |
 |   462    0.05882   0.58824   0.11765   |    0.09579   0.95787   0.19157    |
 |   463    0.05882   0.58824   0.17647   |    0.09579   0.95787   0.28736    |
 |   464    0.05882   0.58824   0.23529   |    0.09579   0.95787   0.38315    |
 |   465    0.05882   0.58824   0.29412   |    0.09579   0.95787   0.47893    |
 |   466    0.05882   0.58824   0.35294   |    0.09579   0.95787   0.57472    |
 |   467    0.05882   0.58824   0.41176   |    0.09579   0.95787   0.67051    |
 |   468    0.05882   0.58824   0.47059   |    0.09579   0.95787   0.76629    |
 |   469    0.05882   0.58824   0.52941   |    0.09579   0.95787   0.86208    |
 |   470    0.05882   0.58824   0.58824   |    0.09579   0.95787   0.95787    |
 |   471    0.05882   0.58824   0.64706   |    0.09579   0.95787   1.05365    |
 |   472    0.05882   0.58824   0.70588   |    0.09579   0.95787   1.14944    |
 |   473    0.05882   0.58824   0.76471   |    0.09579   0.95787   1.24523    |
 |   474    0.05882   0.58824   0.82353   |    0.09579   0.95787   1.34102    |
 |   475    0.05882   0.58824   0.88235   |    0.09579   0.95787   1.43680    |
 |   476    0.05882   0.58824   0.94118   |    0.09579   0.95787   1.53259    |
 |   477    0.05882   0.64706   0.00000   |    0.09579   1.05365   0.00000    |
 |   478    0.05882   0.64706   0.05882   |    0.09579   1.05365   0.09579    |
 |   479    0.05882   0.64706   0.11765   |    0.09579   1.05365   0.19157    |
 |   480    0.05882   0.64706   0.17647   |    0.09579   1.05365   0.28736    |
 |   481    0.05882   0.64706   0.23529   |    0.09579   1.05365   0.38315    |
 |   482    0.05882   0.64706   0.29412   |    0.09579   1.05365   0.47893    |
 |   483    0.05882   0.64706   0.35294   |    0.09579   1.05365   0.57472    |
 |   484    0.05882   0.64706   0.41176   |    0.09579   1.05365   0.67051    |
 |   485    0.05882   0.64706   0.47059   |    0.09579   1.05365   0.76629    |
 |   486    0.05882   0.64706   0.52941   |    0.09579   1.05365   0.86208    |
 |   487    0.05882   0.64706   0.58824   |    0.09579   1.05365   0.95787    |
 |   488    0.05882   0.64706   0.64706   |    0.09579   1.05365   1.05365    |
 |   489    0.05882   0.64706   0.70588   |    0.09579   1.05365   1.14944    |
 |   490    0.05882   0.64706   0.76471   |    0.09579   1.05365   1.24523    |
 |   491    0.05882   0.64706   0.82353   |    0.09579   1.05365   1.34102    |
 |   492    0.05882   0.64706   0.88235   |    0.09579   1.05365   1.43680    |
 |   493    0.05882   0.64706   0.94118   |    0.09579   1.05365   1.53259    |
 |   494    0.05882   0.70588   0.00000   |    0.09579   1.14944   0.00000    |
 |   495    0.05882   0.70588   0.05882   |    0.09579   1.14944   0.09579    |
 |   496    0.05882   0.70588   0.11765   |    0.09579   1.14944   0.19157    |
 |   497    0.05882   0.70588   0.17647   |    0.09579   1.14944   0.28736    |
 |   498    0.05882   0.70588   0.23529   |    0.09579   1.14944   0.38315    |
 |   499    0.05882   0.70588   0.29412   |    0.09579   1.14944   0.47893    |
 |   500    0.05882   0.70588   0.35294   |    0.09579   1.14944   0.57472    |
 |   501    0.05882   0.70588   0.41176   |    0.09579   1.14944   0.67051    |
 |   502    0.05882   0.70588   0.47059   |    0.09579   1.14944   0.76629    |
 |   503    0.05882   0.70588   0.52941   |    0.09579   1.14944   0.86208    |
 |   504    0.05882   0.70588   0.58824   |    0.09579   1.14944   0.95787    |
 |   505    0.05882   0.70588   0.64706   |    0.09579   1.14944   1.05365    |
 |   506    0.05882   0.70588   0.70588   |    0.09579   1.14944   1.14944    |
 |   507    0.05882   0.70588   0.76471   |    0.09579   1.14944   1.24523    |
 |   508    0.05882   0.70588   0.82353   |    0.09579   1.14944   1.34102    |
 |   509    0.05882   0.70588   0.88235   |    0.09579   1.14944   1.43680    |
 |   510    0.05882   0.70588   0.94118   |    0.09579   1.14944   1.53259    |
 |   511    0.05882   0.76471   0.00000   |    0.09579   1.24523   0.00000    |
 |   512    0.05882   0.76471   0.05882   |    0.09579   1.24523   0.09579    |
 |   513    0.05882   0.76471   0.11765   |    0.09579   1.24523   0.19157    |
 |   514    0.05882   0.76471   0.17647   |    0.09579   1.24523   0.28736    |
 |   515    0.05882   0.76471   0.23529   |    0.09579   1.24523   0.38315    |
 |   516    0.05882   0.76471   0.29412   |    0.09579   1.24523   0.47893    |
 |   517    0.05882   0.76471   0.35294   |    0.09579   1.24523   0.57472    |
 |   518    0.05882   0.76471   0.41176   |    0.09579   1.24523   0.67051    |
 |   519    0.05882   0.76471   0.47059   |    0.09579   1.24523   0.76629    |
 |   520    0.05882   0.76471   0.52941   |    0.09579   1.24523   0.86208    |
 |   521    0.05882   0.76471   0.58824   |    0.09579   1.24523   0.95787    |
 |   522    0.05882   0.76471   0.64706   |    0.09579   1.24523   1.05365    |
 |   523    0.05882   0.76471   0.70588   |    0.09579   1.24523   1.14944    |
 |   524    0.05882   0.76471   0.76471   |    0.09579   1.24523   1.24523    |
 |   525    0.05882   0.76471   0.82353   |    0.09579   1.24523   1.34102    |
 |   526    0.05882   0.76471   0.88235   |    0.09579   1.24523   1.43680    |
 |   527    0.05882   0.76471   0.94118   |    0.09579   1.24523   1.53259    |
 |   528    0.05882   0.82353   0.00000   |    0.09579   1.34102   0.00000    |
 |   529    0.05882   0.82353   0.05882   |    0.09579   1.34102   0.09579    |
 |   530    0.05882   0.82353   0.11765   |    0.09579   1.34102   0.19157    |
 |   531    0.05882   0.82353   0.17647   |    0.09579   1.34102   0.28736    |
 |   532    0.05882   0.82353   0.23529   |    0.09579   1.34102   0.38315    |
 |   533    0.05882   0.82353   0.29412   |    0.09579   1.34102   0.47893    |
 |   534    0.05882   0.82353   0.35294   |    0.09579   1.34102   0.57472    |
 |   535    0.05882   0.82353   0.41176   |    0.09579   1.34102   0.67051    |
 |   536    0.05882   0.82353   0.47059   |    0.09579   1.34102   0.76629    |
 |   537    0.05882   0.82353   0.52941   |    0.09579   1.34102   0.86208    |
 |   538    0.05882   0.82353   0.58824   |    0.09579   1.34102   0.95787    |
 |   539    0.05882   0.82353   0.64706   |    0.09579   1.34102   1.05365    |
 |   540    0.05882   0.82353   0.70588   |    0.09579   1.34102   1.14944    |
 |   541    0.05882   0.82353   0.76471   |    0.09579   1.34102   1.24523    |
 |   542    0.05882   0.82353   0.82353   |    0.09579   1.34102   1.34102    |
 |   543    0.05882   0.82353   0.88235   |    0.09579   1.34102   1.43680    |
 |   544    0.05882   0.82353   0.94118   |    0.09579   1.34102   1.53259    |
 |   545    0.05882   0.88235   0.00000   |    0.09579   1.43680   0.00000    |
 |   546    0.05882   0.88235   0.05882   |    0.09579   1.43680   0.09579    |
 |   547    0.05882   0.88235   0.11765   |    0.09579   1.43680   0.19157    |
 |   548    0.05882   0.88235   0.17647   |    0.09579   1.43680   0.28736    |
 |   549    0.05882   0.88235   0.23529   |    0.09579   1.43680   0.38315    |
 |   550    0.05882   0.88235   0.29412   |    0.09579   1.43680   0.47893    |
 |   551    0.05882   0.88235   0.35294   |    0.09579   1.43680   0.57472    |
 |   552    0.05882   0.88235   0.41176   |    0.09579   1.43680   0.67051    |
 |   553    0.05882   0.88235   0.47059   |    0.09579   1.43680   0.76629    |
 |   554    0.05882   0.88235   0.52941   |    0.09579   1.43680   0.86208    |
 |   555    0.05882   0.88235   0.58824   |    0.09579   1.43680   0.95787    |
 |   556    0.05882   0.88235   0.64706   |    0.09579   1.43680   1.05365    |
 |   557    0.05882   0.88235   0.70588   |    0.09579   1.43680   1.14944    |
 |   558    0.05882   0.88235   0.76471   |    0.09579   1.43680   1.24523    |
 |   559    0.05882   0.88235   0.82353   |    0.09579   1.43680   1.34102    |
 |   560    0.05882   0.88235   0.88235   |    0.09579   1.43680   1.43680    |
 |   561    0.05882   0.88235   0.94118   |    0.09579   1.43680   1.53259    |
 |   562    0.05882   0.94118   0.00000   |    0.09579   1.53259   0.00000    |
 |   563    0.05882   0.94118   0.05882   |    0.09579   1.53259   0.09579    |
 |   564    0.05882   0.94118   0.11765   |    0.09579   1.53259   0.19157    |
 |   565    0.05882   0.94118   0.17647   |    0.09579   1.53259   0.28736    |
 |   566    0.05882   0.94118   0.23529   |    0.09579   1.53259   0.38315    |
 |   567    0.05882   0.94118   0.29412   |    0.09579   1.53259   0.47893    |
 |   568    0.05882   0.94118   0.35294   |    0.09579   1.53259   0.57472    |
 |   569    0.05882   0.94118   0.41176   |    0.09579   1.53259   0.67051    |
 |   570    0.05882   0.94118   0.47059   |    0.09579   1.53259   0.76629    |
 |   571    0.05882   0.94118   0.52941   |    0.09579   1.53259   0.86208    |
 |   572    0.05882   0.94118   0.58824   |    0.09579   1.53259   0.95787    |
 |   573    0.05882   0.94118   0.64706   |    0.09579   1.53259   1.05365    |
 |   574    0.05882   0.94118   0.70588   |    0.09579   1.53259   1.14944    |
 |   575    0.05882   0.94118   0.76471   |    0.09579   1.53259   1.24523    |
 |   576    0.05882   0.94118   0.82353   |    0.09579   1.53259   1.34102    |
 |   577    0.05882   0.94118   0.88235   |    0.09579   1.53259   1.43680    |
 |   578    0.05882   0.94118   0.94118   |    0.09579   1.53259   1.53259    |
 |   579    0.11765   0.00000   0.00000   |    0.19157   0.00000   0.00000    |
 |   580    0.11765   0.00000   0.05882   |    0.19157   0.00000   0.09579    |
 |   581    0.11765   0.00000   0.11765   |    0.19157   0.00000   0.19157    |
 |   582    0.11765   0.00000   0.17647   |    0.19157   0.00000   0.28736    |
 |   583    0.11765   0.00000   0.23529   |    0.19157   0.00000   0.38315    |
 |   584    0.11765   0.00000   0.29412   |    0.19157   0.00000   0.47893    |
 |   585    0.11765   0.00000   0.35294   |    0.19157   0.00000   0.57472    |
 |   586    0.11765   0.00000   0.41176   |    0.19157   0.00000   0.67051    |
 |   587    0.11765   0.00000   0.47059   |    0.19157   0.00000   0.76629    |
 |   588    0.11765   0.00000   0.52941   |    0.19157   0.00000   0.86208    |
 |   589    0.11765   0.00000   0.58824   |    0.19157   0.00000   0.95787    |
 |   590    0.11765   0.00000   0.64706   |    0.19157   0.00000   1.05365    |
 |   591    0.11765   0.00000   0.70588   |    0.19157   0.00000   1.14944    |
 |   592    0.11765   0.00000   0.76471   |    0.19157   0.00000   1.24523    |
 |   593    0.11765   0.00000   0.82353   |    0.19157   0.00000   1.34102    |
 |   594    0.11765   0.00000   0.88235   |    0.19157   0.00000   1.43680    |
 |   595    0.11765   0.00000   0.94118   |    0.19157   0.00000   1.53259    |
 |   596    0.11765   0.05882   0.00000   |    0.19157   0.09579   0.00000    |
 |   597    0.11765   0.05882   0.05882   |    0.19157   0.09579   0.09579    |
 |   598    0.11765   0.05882   0.11765   |    0.19157   0.09579   0.19157    |
 |   599    0.11765   0.05882   0.17647   |    0.19157   0.09579   0.28736    |
 |   600    0.11765   0.05882   0.23529   |    0.19157   0.09579   0.38315    |
 |   601    0.11765   0.05882   0.29412   |    0.19157   0.09579   0.47893    |
 |   602    0.11765   0.05882   0.35294   |    0.19157   0.09579   0.57472    |
 |   603    0.11765   0.05882   0.41176   |    0.19157   0.09579   0.67051    |
 |   604    0.11765   0.05882   0.47059   |    0.19157   0.09579   0.76629    |
 |   605    0.11765   0.05882   0.52941   |    0.19157   0.09579   0.86208    |
 |   606    0.11765   0.05882   0.58824   |    0.19157   0.09579   0.95787    |
 |   607    0.11765   0.05882   0.64706   |    0.19157   0.09579   1.05365    |
 |   608    0.11765   0.05882   0.70588   |    0.19157   0.09579   1.14944    |
 |   609    0.11765   0.05882   0.76471   |    0.19157   0.09579   1.24523    |
 |   610    0.11765   0.05882   0.82353   |    0.19157   0.09579   1.34102    |
 |   611    0.11765   0.05882   0.88235   |    0.19157   0.09579   1.43680    |
 |   612    0.11765   0.05882   0.94118   |    0.19157   0.09579   1.53259    |
 |   613    0.11765   0.11765   0.00000   |    0.19157   0.19157   0.00000    |
 |   614    0.11765   0.11765   0.05882   |    0.19157   0.19157   0.09579    |
 |   615    0.11765   0.11765   0.11765   |    0.19157   0.19157   0.19157    |
 |   616    0.11765   0.11765   0.17647   |    0.19157   0.19157   0.28736    |
 |   617    0.11765   0.11765   0.23529   |    0.19157   0.19157   0.38315    |
 |   618    0.11765   0.11765   0.29412   |    0.19157   0.19157   0.47893    |
 |   619    0.11765   0.11765   0.35294   |    0.19157   0.19157   0.57472    |
 |   620    0.11765   0.11765   0.41176   |    0.19157   0.19157   0.67051    |
 |   621    0.11765   0.11765   0.47059   |    0.19157   0.19157   0.76629    |
 |   622    0.11765   0.11765   0.52941   |    0.19157   0.19157   0.86208    |
 |   623    0.11765   0.11765   0.58824   |    0.19157   0.19157   0.95787    |
 |   624    0.11765   0.11765   0.64706   |    0.19157   0.19157   1.05365    |
 |   625    0.11765   0.11765   0.70588   |    0.19157   0.19157   1.14944    |
 |   626    0.11765   0.11765   0.76471   |    0.19157   0.19157   1.24523    |
 |   627    0.11765   0.11765   0.82353   |    0.19157   0.19157   1.34102    |
 |   628    0.11765   0.11765   0.88235   |    0.19157   0.19157   1.43680    |
 |   629    0.11765   0.11765   0.94118   |    0.19157   0.19157   1.53259    |
 |   630    0.11765   0.17647   0.00000   |    0.19157   0.28736   0.00000    |
 |   631    0.11765   0.17647   0.05882   |    0.19157   0.28736   0.09579    |
 |   632    0.11765   0.17647   0.11765   |    0.19157   0.28736   0.19157    |
 |   633    0.11765   0.17647   0.17647   |    0.19157   0.28736   0.28736    |
 |   634    0.11765   0.17647   0.23529   |    0.19157   0.28736   0.38315    |
 |   635    0.11765   0.17647   0.29412   |    0.19157   0.28736   0.47893    |
 |   636    0.11765   0.17647   0.35294   |    0.19157   0.28736   0.57472    |
 |   637    0.11765   0.17647   0.41176   |    0.19157   0.28736   0.67051    |
 |   638    0.11765   0.17647   0.47059   |    0.19157   0.28736   0.76629    |
 |   639    0.11765   0.17647   0.52941   |    0.19157   0.28736   0.86208    |
 |   640    0.11765   0.17647   0.58824   |    0.19157   0.28736   0.95787    |
 |   641    0.11765   0.17647   0.64706   |    0.19157   0.28736   1.05365    |
 |   642    0.11765   0.17647   0.70588   |    0.19157   0.28736   1.14944    |
 |   643    0.11765   0.17647   0.76471   |    0.19157   0.28736   1.24523    |
 |   644    0.11765   0.17647   0.82353   |    0.19157   0.28736   1.34102    |
 |   645    0.11765   0.17647   0.88235   |    0.19157   0.28736   1.43680    |
 |   646    0.11765   0.17647   0.94118   |    0.19157   0.28736   1.53259    |
 |   647    0.11765   0.23529   0.00000   |    0.19157   0.38315   0.00000    |
 |   648    0.11765   0.23529   0.05882   |    0.19157   0.38315   0.09579    |
 |   649    0.11765   0.23529   0.11765   |    0.19157   0.38315   0.19157    |
 |   650    0.11765   0.23529   0.17647   |    0.19157   0.38315   0.28736    |
 |   651    0.11765   0.23529   0.23529   |    0.19157   0.38315   0.38315    |
 |   652    0.11765   0.23529   0.29412   |    0.19157   0.38315   0.47893    |
 |   653    0.11765   0.23529   0.35294   |    0.19157   0.38315   0.57472    |
 |   654    0.11765   0.23529   0.41176   |    0.19157   0.38315   0.67051    |
 |   655    0.11765   0.23529   0.47059   |    0.19157   0.38315   0.76629    |
 |   656    0.11765   0.23529   0.52941   |    0.19157   0.38315   0.86208    |
 |   657    0.11765   0.23529   0.58824   |    0.19157   0.38315   0.95787    |
 |   658    0.11765   0.23529   0.64706   |    0.19157   0.38315   1.05365    |
 |   659    0.11765   0.23529   0.70588   |    0.19157   0.38315   1.14944    |
 |   660    0.11765   0.23529   0.76471   |    0.19157   0.38315   1.24523    |
 |   661    0.11765   0.23529   0.82353   |    0.19157   0.38315   1.34102    |
 |   662    0.11765   0.23529   0.88235   |    0.19157   0.38315   1.43680    |
 |   663    0.11765   0.23529   0.94118   |    0.19157   0.38315   1.53259    |
 |   664    0.11765   0.29412   0.00000   |    0.19157   0.47893   0.00000    |
 |   665    0.11765   0.29412   0.05882   |    0.19157   0.47893   0.09579    |
 |   666    0.11765   0.29412   0.11765   |    0.19157   0.47893   0.19157    |
 |   667    0.11765   0.29412   0.17647   |    0.19157   0.47893   0.28736    |
 |   668    0.11765   0.29412   0.23529   |    0.19157   0.47893   0.38315    |
 |   669    0.11765   0.29412   0.29412   |    0.19157   0.47893   0.47893    |
 |   670    0.11765   0.29412   0.35294   |    0.19157   0.47893   0.57472    |
 |   671    0.11765   0.29412   0.41176   |    0.19157   0.47893   0.67051    |
 |   672    0.11765   0.29412   0.47059   |    0.19157   0.47893   0.76629    |
 |   673    0.11765   0.29412   0.52941   |    0.19157   0.47893   0.86208    |
 |   674    0.11765   0.29412   0.58824   |    0.19157   0.47893   0.95787    |
 |   675    0.11765   0.29412   0.64706   |    0.19157   0.47893   1.05365    |
 |   676    0.11765   0.29412   0.70588   |    0.19157   0.47893   1.14944    |
 |   677    0.11765   0.29412   0.76471   |    0.19157   0.47893   1.24523    |
 |   678    0.11765   0.29412   0.82353   |    0.19157   0.47893   1.34102    |
 |   679    0.11765   0.29412   0.88235   |    0.19157   0.47893   1.43680    |
 |   680    0.11765   0.29412   0.94118   |    0.19157   0.47893   1.53259    |
 |   681    0.11765   0.35294   0.00000   |    0.19157   0.57472   0.00000    |
 |   682    0.11765   0.35294   0.05882   |    0.19157   0.57472   0.09579    |
 |   683    0.11765   0.35294   0.11765   |    0.19157   0.57472   0.19157    |
 |   684    0.11765   0.35294   0.17647   |    0.19157   0.57472   0.28736    |
 |   685    0.11765   0.35294   0.23529   |    0.19157   0.57472   0.38315    |
 |   686    0.11765   0.35294   0.29412   |    0.19157   0.57472   0.47893    |
 |   687    0.11765   0.35294   0.35294   |    0.19157   0.57472   0.57472    |
 |   688    0.11765   0.35294   0.41176   |    0.19157   0.57472   0.67051    |
 |   689    0.11765   0.35294   0.47059   |    0.19157   0.57472   0.76629    |
 |   690    0.11765   0.35294   0.52941   |    0.19157   0.57472   0.86208    |
 |   691    0.11765   0.35294   0.58824   |    0.19157   0.57472   0.95787    |
 |   692    0.11765   0.35294   0.64706   |    0.19157   0.57472   1.05365    |
 |   693    0.11765   0.35294   0.70588   |    0.19157   0.57472   1.14944    |
 |   694    0.11765   0.35294   0.76471   |    0.19157   0.57472   1.24523    |
 |   695    0.11765   0.35294   0.82353   |    0.19157   0.57472   1.34102    |
 |   696    0.11765   0.35294   0.88235   |    0.19157   0.57472   1.43680    |
 |   697    0.11765   0.35294   0.94118   |    0.19157   0.57472   1.53259    |
 |   698    0.11765   0.41176   0.00000   |    0.19157   0.67051   0.00000    |
 |   699    0.11765   0.41176   0.05882   |    0.19157   0.67051   0.09579    |
 |   700    0.11765   0.41176   0.11765   |    0.19157   0.67051   0.19157    |
 |   701    0.11765   0.41176   0.17647   |    0.19157   0.67051   0.28736    |
 |   702    0.11765   0.41176   0.23529   |    0.19157   0.67051   0.38315    |
 |   703    0.11765   0.41176   0.29412   |    0.19157   0.67051   0.47893    |
 |   704    0.11765   0.41176   0.35294   |    0.19157   0.67051   0.57472    |
 |   705    0.11765   0.41176   0.41176   |    0.19157   0.67051   0.67051    |
 |   706    0.11765   0.41176   0.47059   |    0.19157   0.67051   0.76629    |
 |   707    0.11765   0.41176   0.52941   |    0.19157   0.67051   0.86208    |
 |   708    0.11765   0.41176   0.58824   |    0.19157   0.67051   0.95787    |
 |   709    0.11765   0.41176   0.64706   |    0.19157   0.67051   1.05365    |
 |   710    0.11765   0.41176   0.70588   |    0.19157   0.67051   1.14944    |
 |   711    0.11765   0.41176   0.76471   |    0.19157   0.67051   1.24523    |
 |   712    0.11765   0.41176   0.82353   |    0.19157   0.67051   1.34102    |
 |   713    0.11765   0.41176   0.88235   |    0.19157   0.67051   1.43680    |
 |   714    0.11765   0.41176   0.94118   |    0.19157   0.67051   1.53259    |
 |   715    0.11765   0.47059   0.00000   |    0.19157   0.76629   0.00000    |
 |   716    0.11765   0.47059   0.05882   |    0.19157   0.76629   0.09579    |
 |   717    0.11765   0.47059   0.11765   |    0.19157   0.76629   0.19157    |
 |   718    0.11765   0.47059   0.17647   |    0.19157   0.76629   0.28736    |
 |   719    0.11765   0.47059   0.23529   |    0.19157   0.76629   0.38315    |
 |   720    0.11765   0.47059   0.29412   |    0.19157   0.76629   0.47893    |
 |   721    0.11765   0.47059   0.35294   |    0.19157   0.76629   0.57472    |
 |   722    0.11765   0.47059   0.41176   |    0.19157   0.76629   0.67051    |
 |   723    0.11765   0.47059   0.47059   |    0.19157   0.76629   0.76629    |
 |   724    0.11765   0.47059   0.52941   |    0.19157   0.76629   0.86208    |
 |   725    0.11765   0.47059   0.58824   |    0.19157   0.76629   0.95787    |
 |   726    0.11765   0.47059   0.64706   |    0.19157   0.76629   1.05365    |
 |   727    0.11765   0.47059   0.70588   |    0.19157   0.76629   1.14944    |
 |   728    0.11765   0.47059   0.76471   |    0.19157   0.76629   1.24523    |
 |   729    0.11765   0.47059   0.82353   |    0.19157   0.76629   1.34102    |
 |   730    0.11765   0.47059   0.88235   |    0.19157   0.76629   1.43680    |
 |   731    0.11765   0.47059   0.94118   |    0.19157   0.76629   1.53259    |
 |   732    0.11765   0.52941   0.00000   |    0.19157   0.86208   0.00000    |
 |   733    0.11765   0.52941   0.05882   |    0.19157   0.86208   0.09579    |
 |   734    0.11765   0.52941   0.11765   |    0.19157   0.86208   0.19157    |
 |   735    0.11765   0.52941   0.17647   |    0.19157   0.86208   0.28736    |
 |   736    0.11765   0.52941   0.23529   |    0.19157   0.86208   0.38315    |
 |   737    0.11765   0.52941   0.29412   |    0.19157   0.86208   0.47893    |
 |   738    0.11765   0.52941   0.35294   |    0.19157   0.86208   0.57472    |
 |   739    0.11765   0.52941   0.41176   |    0.19157   0.86208   0.67051    |
 |   740    0.11765   0.52941   0.47059   |    0.19157   0.86208   0.76629    |
 |   741    0.11765   0.52941   0.52941   |    0.19157   0.86208   0.86208    |
 |   742    0.11765   0.52941   0.58824   |    0.19157   0.86208   0.95787    |
 |   743    0.11765   0.52941   0.64706   |    0.19157   0.86208   1.05365    |
 |   744    0.11765   0.52941   0.70588   |    0.19157   0.86208   1.14944    |
 |   745    0.11765   0.52941   0.76471   |    0.19157   0.86208   1.24523    |
 |   746    0.11765   0.52941   0.82353   |    0.19157   0.86208   1.34102    |
 |   747    0.11765   0.52941   0.88235   |    0.19157   0.86208   1.43680    |
 |   748    0.11765   0.52941   0.94118   |    0.19157   0.86208   1.53259    |
 |   749    0.11765   0.58824   0.00000   |    0.19157   0.95787   0.00000    |
 |   750    0.11765   0.58824   0.05882   |    0.19157   0.95787   0.09579    |
 |   751    0.11765   0.58824   0.11765   |    0.19157   0.95787   0.19157    |
 |   752    0.11765   0.58824   0.17647   |    0.19157   0.95787   0.28736    |
 |   753    0.11765   0.58824   0.23529   |    0.19157   0.95787   0.38315    |
 |   754    0.11765   0.58824   0.29412   |    0.19157   0.95787   0.47893    |
 |   755    0.11765   0.58824   0.35294   |    0.19157   0.95787   0.57472    |
 |   756    0.11765   0.58824   0.41176   |    0.19157   0.95787   0.67051    |
 |   757    0.11765   0.58824   0.47059   |    0.19157   0.95787   0.76629    |
 |   758    0.11765   0.58824   0.52941   |    0.19157   0.95787   0.86208    |
 |   759    0.11765   0.58824   0.58824   |    0.19157   0.95787   0.95787    |
 |   760    0.11765   0.58824   0.64706   |    0.19157   0.95787   1.05365    |
 |   761    0.11765   0.58824   0.70588   |    0.19157   0.95787   1.14944    |
 |   762    0.11765   0.58824   0.76471   |    0.19157   0.95787   1.24523    |
 |   763    0.11765   0.58824   0.82353   |    0.19157   0.95787   1.34102    |
 |   764    0.11765   0.58824   0.88235   |    0.19157   0.95787   1.43680    |
 |   765    0.11765   0.58824   0.94118   |    0.19157   0.95787   1.53259    |
 |   766    0.11765   0.64706   0.00000   |    0.19157   1.05365   0.00000    |
 |   767    0.11765   0.64706   0.05882   |    0.19157   1.05365   0.09579    |
 |   768    0.11765   0.64706   0.11765   |    0.19157   1.05365   0.19157    |
 |   769    0.11765   0.64706   0.17647   |    0.19157   1.05365   0.28736    |
 |   770    0.11765   0.64706   0.23529   |    0.19157   1.05365   0.38315    |
 |   771    0.11765   0.64706   0.29412   |    0.19157   1.05365   0.47893    |
 |   772    0.11765   0.64706   0.35294   |    0.19157   1.05365   0.57472    |
 |   773    0.11765   0.64706   0.41176   |    0.19157   1.05365   0.67051    |
 |   774    0.11765   0.64706   0.47059   |    0.19157   1.05365   0.76629    |
 |   775    0.11765   0.64706   0.52941   |    0.19157   1.05365   0.86208    |
 |   776    0.11765   0.64706   0.58824   |    0.19157   1.05365   0.95787    |
 |   777    0.11765   0.64706   0.64706   |    0.19157   1.05365   1.05365    |
 |   778    0.11765   0.64706   0.70588   |    0.19157   1.05365   1.14944    |
 |   779    0.11765   0.64706   0.76471   |    0.19157   1.05365   1.24523    |
 |   780    0.11765   0.64706   0.82353   |    0.19157   1.05365   1.34102    |
 |   781    0.11765   0.64706   0.88235   |    0.19157   1.05365   1.43680    |
 |   782    0.11765   0.64706   0.94118   |    0.19157   1.05365   1.53259    |
 |   783    0.11765   0.70588   0.00000   |    0.19157   1.14944   0.00000    |
 |   784    0.11765   0.70588   0.05882   |    0.19157   1.14944   0.09579    |
 |   785    0.11765   0.70588   0.11765   |    0.19157   1.14944   0.19157    |
 |   786    0.11765   0.70588   0.17647   |    0.19157   1.14944   0.28736    |
 |   787    0.11765   0.70588   0.23529   |    0.19157   1.14944   0.38315    |
 |   788    0.11765   0.70588   0.29412   |    0.19157   1.14944   0.47893    |
 |   789    0.11765   0.70588   0.35294   |    0.19157   1.14944   0.57472    |
 |   790    0.11765   0.70588   0.41176   |    0.19157   1.14944   0.67051    |
 |   791    0.11765   0.70588   0.47059   |    0.19157   1.14944   0.76629    |
 |   792    0.11765   0.70588   0.52941   |    0.19157   1.14944   0.86208    |
 |   793    0.11765   0.70588   0.58824   |    0.19157   1.14944   0.95787    |
 |   794    0.11765   0.70588   0.64706   |    0.19157   1.14944   1.05365    |
 |   795    0.11765   0.70588   0.70588   |    0.19157   1.14944   1.14944    |
 |   796    0.11765   0.70588   0.76471   |    0.19157   1.14944   1.24523    |
 |   797    0.11765   0.70588   0.82353   |    0.19157   1.14944   1.34102    |
 |   798    0.11765   0.70588   0.88235   |    0.19157   1.14944   1.43680    |
 |   799    0.11765   0.70588   0.94118   |    0.19157   1.14944   1.53259    |
 |   800    0.11765   0.76471   0.00000   |    0.19157   1.24523   0.00000    |
 |   801    0.11765   0.76471   0.05882   |    0.19157   1.24523   0.09579    |
 |   802    0.11765   0.76471   0.11765   |    0.19157   1.24523   0.19157    |
 |   803    0.11765   0.76471   0.17647   |    0.19157   1.24523   0.28736    |
 |   804    0.11765   0.76471   0.23529   |    0.19157   1.24523   0.38315    |
 |   805    0.11765   0.76471   0.29412   |    0.19157   1.24523   0.47893    |
 |   806    0.11765   0.76471   0.35294   |    0.19157   1.24523   0.57472    |
 |   807    0.11765   0.76471   0.41176   |    0.19157   1.24523   0.67051    |
 |   808    0.11765   0.76471   0.47059   |    0.19157   1.24523   0.76629    |
 |   809    0.11765   0.76471   0.52941   |    0.19157   1.24523   0.86208    |
 |   810    0.11765   0.76471   0.58824   |    0.19157   1.24523   0.95787    |
 |   811    0.11765   0.76471   0.64706   |    0.19157   1.24523   1.05365    |
 |   812    0.11765   0.76471   0.70588   |    0.19157   1.24523   1.14944    |
 |   813    0.11765   0.76471   0.76471   |    0.19157   1.24523   1.24523    |
 |   814    0.11765   0.76471   0.82353   |    0.19157   1.24523   1.34102    |
 |   815    0.11765   0.76471   0.88235   |    0.19157   1.24523   1.43680    |
 |   816    0.11765   0.76471   0.94118   |    0.19157   1.24523   1.53259    |
 |   817    0.11765   0.82353   0.00000   |    0.19157   1.34102   0.00000    |
 |   818    0.11765   0.82353   0.05882   |    0.19157   1.34102   0.09579    |
 |   819    0.11765   0.82353   0.11765   |    0.19157   1.34102   0.19157    |
 |   820    0.11765   0.82353   0.17647   |    0.19157   1.34102   0.28736    |
 |   821    0.11765   0.82353   0.23529   |    0.19157   1.34102   0.38315    |
 |   822    0.11765   0.82353   0.29412   |    0.19157   1.34102   0.47893    |
 |   823    0.11765   0.82353   0.35294   |    0.19157   1.34102   0.57472    |
 |   824    0.11765   0.82353   0.41176   |    0.19157   1.34102   0.67051    |
 |   825    0.11765   0.82353   0.47059   |    0.19157   1.34102   0.76629    |
 |   826    0.11765   0.82353   0.52941   |    0.19157   1.34102   0.86208    |
 |   827    0.11765   0.82353   0.58824   |    0.19157   1.34102   0.95787    |
 |   828    0.11765   0.82353   0.64706   |    0.19157   1.34102   1.05365    |
 |   829    0.11765   0.82353   0.70588   |    0.19157   1.34102   1.14944    |
 |   830    0.11765   0.82353   0.76471   |    0.19157   1.34102   1.24523    |
 |   831    0.11765   0.82353   0.82353   |    0.19157   1.34102   1.34102    |
 |   832    0.11765   0.82353   0.88235   |    0.19157   1.34102   1.43680    |
 |   833    0.11765   0.82353   0.94118   |    0.19157   1.34102   1.53259    |
 |   834    0.11765   0.88235   0.00000   |    0.19157   1.43680   0.00000    |
 |   835    0.11765   0.88235   0.05882   |    0.19157   1.43680   0.09579    |
 |   836    0.11765   0.88235   0.11765   |    0.19157   1.43680   0.19157    |
 |   837    0.11765   0.88235   0.17647   |    0.19157   1.43680   0.28736    |
 |   838    0.11765   0.88235   0.23529   |    0.19157   1.43680   0.38315    |
 |   839    0.11765   0.88235   0.29412   |    0.19157   1.43680   0.47893    |
 |   840    0.11765   0.88235   0.35294   |    0.19157   1.43680   0.57472    |
 |   841    0.11765   0.88235   0.41176   |    0.19157   1.43680   0.67051    |
 |   842    0.11765   0.88235   0.47059   |    0.19157   1.43680   0.76629    |
 |   843    0.11765   0.88235   0.52941   |    0.19157   1.43680   0.86208    |
 |   844    0.11765   0.88235   0.58824   |    0.19157   1.43680   0.95787    |
 |   845    0.11765   0.88235   0.64706   |    0.19157   1.43680   1.05365    |
 |   846    0.11765   0.88235   0.70588   |    0.19157   1.43680   1.14944    |
 |   847    0.11765   0.88235   0.76471   |    0.19157   1.43680   1.24523    |
 |   848    0.11765   0.88235   0.82353   |    0.19157   1.43680   1.34102    |
 |   849    0.11765   0.88235   0.88235   |    0.19157   1.43680   1.43680    |
 |   850    0.11765   0.88235   0.94118   |    0.19157   1.43680   1.53259    |
 |   851    0.11765   0.94118   0.00000   |    0.19157   1.53259   0.00000    |
 |   852    0.11765   0.94118   0.05882   |    0.19157   1.53259   0.09579    |
 |   853    0.11765   0.94118   0.11765   |    0.19157   1.53259   0.19157    |
 |   854    0.11765   0.94118   0.17647   |    0.19157   1.53259   0.28736    |
 |   855    0.11765   0.94118   0.23529   |    0.19157   1.53259   0.38315    |
 |   856    0.11765   0.94118   0.29412   |    0.19157   1.53259   0.47893    |
 |   857    0.11765   0.94118   0.35294   |    0.19157   1.53259   0.57472    |
 |   858    0.11765   0.94118   0.41176   |    0.19157   1.53259   0.67051    |
 |   859    0.11765   0.94118   0.47059   |    0.19157   1.53259   0.76629    |
 |   860    0.11765   0.94118   0.52941   |    0.19157   1.53259   0.86208    |
 |   861    0.11765   0.94118   0.58824   |    0.19157   1.53259   0.95787    |
 |   862    0.11765   0.94118   0.64706   |    0.19157   1.53259   1.05365    |
 |   863    0.11765   0.94118   0.70588   |    0.19157   1.53259   1.14944    |
 |   864    0.11765   0.94118   0.76471   |    0.19157   1.53259   1.24523    |
 |   865    0.11765   0.94118   0.82353   |    0.19157   1.53259   1.34102    |
 |   866    0.11765   0.94118   0.88235   |    0.19157   1.53259   1.43680    |
 |   867    0.11765   0.94118   0.94118   |    0.19157   1.53259   1.53259    |
 |   868    0.17647   0.00000   0.00000   |    0.28736   0.00000   0.00000    |
 |   869    0.17647   0.00000   0.05882   |    0.28736   0.00000   0.09579    |
 |   870    0.17647   0.00000   0.11765   |    0.28736   0.00000   0.19157    |
 |   871    0.17647   0.00000   0.17647   |    0.28736   0.00000   0.28736    |
 |   872    0.17647   0.00000   0.23529   |    0.28736   0.00000   0.38315    |
 |   873    0.17647   0.00000   0.29412   |    0.28736   0.00000   0.47893    |
 |   874    0.17647   0.00000   0.35294   |    0.28736   0.00000   0.57472    |
 |   875    0.17647   0.00000   0.41176   |    0.28736   0.00000   0.67051    |
 |   876    0.17647   0.00000   0.47059   |    0.28736   0.00000   0.76629    |
 |   877    0.17647   0.00000   0.52941   |    0.28736   0.00000   0.86208    |
 |   878    0.17647   0.00000   0.58824   |    0.28736   0.00000   0.95787    |
 |   879    0.17647   0.00000   0.64706   |    0.28736   0.00000   1.05365    |
 |   880    0.17647   0.00000   0.70588   |    0.28736   0.00000   1.14944    |
 |   881    0.17647   0.00000   0.76471   |    0.28736   0.00000   1.24523    |
 |   882    0.17647   0.00000   0.82353   |    0.28736   0.00000   1.34102    |
 |   883    0.17647   0.00000   0.88235   |    0.28736   0.00000   1.43680    |
 |   884    0.17647   0.00000   0.94118   |    0.28736   0.00000   1.53259    |
 |   885    0.17647   0.05882   0.00000   |    0.28736   0.09579   0.00000    |
 |   886    0.17647   0.05882   0.05882   |    0.28736   0.09579   0.09579    |
 |   887    0.17647   0.05882   0.11765   |    0.28736   0.09579   0.19157    |
 |   888    0.17647   0.05882   0.17647   |    0.28736   0.09579   0.28736    |
 |   889    0.17647   0.05882   0.23529   |    0.28736   0.09579   0.38315    |
 |   890    0.17647   0.05882   0.29412   |    0.28736   0.09579   0.47893    |
 |   891    0.17647   0.05882   0.35294   |    0.28736   0.09579   0.57472    |
 |   892    0.17647   0.05882   0.41176   |    0.28736   0.09579   0.67051    |
 |   893    0.17647   0.05882   0.47059   |    0.28736   0.09579   0.76629    |
 |   894    0.17647   0.05882   0.52941   |    0.28736   0.09579   0.86208    |
 |   895    0.17647   0.05882   0.58824   |    0.28736   0.09579   0.95787    |
 |   896    0.17647   0.05882   0.64706   |    0.28736   0.09579   1.05365    |
 |   897    0.17647   0.05882   0.70588   |    0.28736   0.09579   1.14944    |
 |   898    0.17647   0.05882   0.76471   |    0.28736   0.09579   1.24523    |
 |   899    0.17647   0.05882   0.82353   |    0.28736   0.09579   1.34102    |
 |   900    0.17647   0.05882   0.88235   |    0.28736   0.09579   1.43680    |
 |   901    0.17647   0.05882   0.94118   |    0.28736   0.09579   1.53259    |
[...]
 |            No.           x           y           z                         |
 |            ---        --------------------------------                     |
 |             1         0.000000    0.000000    0.095787                     |
 |             2         0.000000    0.095787    0.000000                     |
 |             3         0.095787    0.000000    0.000000                     |
 +----------------------------------------------------------------------------+
  
 Time to get kmesh             31.637 (sec)
 *============================================================================*
 |                              MEMORY ESTIMATE                               |
 |         Maximum RAM allocated during each phase of the calculation         |
 *============================================================================*
 |                            Wannierise:           15.69 Mb                  |
 |                                                                            |
 |   N.B. by setting optimisation=0 memory usage will be reduced to:          |
 |                            Wannierise:           11.64 Mb                  |
 |   However, this will result in more i/o and slow down the calculation      |
 |                          plot_wannier:           15.69 Mb                  |
 *----------------------------------------------------------------------------*
  
 Starting a new Wannier90 calculation ...


 Reading overlaps from svo.mmn    :  Created on 27Jan2021 at 19:17:30

 Reading projections from svo.amn :  Created on 27Jan2021 at 19:15: 7

 Time to read overlaps          0.322 (sec)

 Writing checkpoint file svo.chk... done


 *------------------------------- WANNIERISE ---------------------------------*
 +--------------------------------------------------------------------+<-- CONV
 | Iter  Delta Spread     RMS Gradient      Spread (Ang^2)      Time  |<-- CONV
 +--------------------------------------------------------------------+<-- CONV

 ------------------------------------------------------------------------------
 Initial State
  WF centre and spread    1  (  1.929280,  1.929280,  1.929280 )     1.95423214
  WF centre and spread    2  (  1.929280,  1.929280,  1.929280 )     1.95423214
  WF centre and spread    3  (  1.929280,  1.929280,  1.929280 )     1.95423214
  Sum of centres and spreads (  5.787839,  5.787839,  5.787839 )     5.86269642

      0     0.586E+01     0.0000000000        5.8626957451       0.00  <-- CONV
        O_D=      0.0000000 O_OD=      0.0062790 O_TOT=      5.8626957 <-- SPRD
 ------------------------------------------------------------------------------
 Cycle:      1
  WF centre and spread    1  (  1.929280,  1.929280,  1.929280 )     1.95418251
  WF centre and spread    2  (  1.929280,  1.929280,  1.929280 )     1.95418251
  WF centre and spread    3  (  1.929280,  1.929280,  1.929280 )     1.95418251
  Sum of centres and spreads (  5.787839,  5.787839,  5.787839 )     5.86254752

      1    -0.149E-03     0.0038082170        5.8625468529       0.11  <-- CONV
        O_D=      0.0000000 O_OD=      0.0061301 O_TOT=      5.8625469 <-- SPRD
 Delta: O_D=  0.2063131E-12 O_OD= -0.1488922E-03 O_TOT= -0.1488922E-03 <-- DLTA
 ------------------------------------------------------------------------------
 Cycle:      2
  WF centre and spread    1  (  1.929280,  1.929280,  1.929280 )     1.95417196
  WF centre and spread    2  (  1.929280,  1.929280,  1.929280 )     1.95417196
  WF centre and spread    3  (  1.929280,  1.929280,  1.929280 )     1.95417196
  Sum of centres and spreads (  5.787839,  5.787839,  5.787839 )     5.86251588

      2    -0.316E-04     0.0032620580        5.8625152149       0.23  <-- CONV
        O_D=      0.0000000 O_OD=      0.0060984 O_TOT=      5.8625152 <-- SPRD
 Delta: O_D=  0.4444917E-13 O_OD= -0.3163799E-04 O_TOT= -0.3163799E-04 <-- DLTA
 ------------------------------------------------------------------------------
 Cycle:      3
  WF centre and spread    1  (  1.929280,  1.929280,  1.929280 )     1.95416733
  WF centre and spread    2  (  1.929280,  1.929280,  1.929280 )     1.95416733
  WF centre and spread    3  (  1.929280,  1.929280,  1.929280 )     1.95416733
  Sum of centres and spreads (  5.787839,  5.787839,  5.787839 )     5.86250199

      3    -0.139E-04     0.0023931936        5.8625013203       0.34  <-- CONV
        O_D=      0.0000000 O_OD=      0.0060845 O_TOT=      5.8625013 <-- SPRD
 Delta: O_D= -0.1843468E-12 O_OD= -0.1389467E-04 O_TOT= -0.1389467E-04 <-- DLTA
 ------------------------------------------------------------------------------
 Cycle:      4
  WF centre and spread    1  (  1.929280,  1.929280,  1.929280 )     1.95416596
  WF centre and spread    2  (  1.929280,  1.929280,  1.929280 )     1.95416596
  WF centre and spread    3  (  1.929280,  1.929280,  1.929280 )     1.95416596
  Sum of centres and spreads (  5.787839,  5.787839,  5.787839 )     5.86249787

      4    -0.412E-05     0.0012909769        5.8624971974       0.45  <-- CONV
        O_D=      0.0000000 O_OD=      0.0060804 O_TOT=      5.8624972 <-- SPRD
 Delta: O_D= -0.3358351E-13 O_OD= -0.4122829E-05 O_TOT= -0.4122829E-05 <-- DLTA
 ------------------------------------------------------------------------------
 Cycle:      5
  WF centre and spread    1  (  1.929280,  1.929280,  1.929280 )     1.95416547
  WF centre and spread    2  (  1.929280,  1.929280,  1.929280 )     1.95416547
  WF centre and spread    3  (  1.929280,  1.929280,  1.929280 )     1.95416547
  Sum of centres and spreads (  5.787839,  5.787839,  5.787839 )     5.86249642

      5    -0.145E-05     0.0008030511        5.8624957510       0.56  <-- CONV
        O_D=      0.0000000 O_OD=      0.0060790 O_TOT=      5.8624958 <-- SPRD
 Delta: O_D= -0.2953392E-13 O_OD= -0.1446409E-05 O_TOT= -0.1446410E-05 <-- DLTA
 ------------------------------------------------------------------------------
 Cycle:      6
  WF centre and spread    1  (  1.929280,  1.929280,  1.929280 )     1.95416532
  WF centre and spread    2  (  1.929280,  1.929280,  1.929280 )     1.95416532
  WF centre and spread    3  (  1.929280,  1.929280,  1.929280 )     1.95416532
  Sum of centres and spreads (  5.787839,  5.787839,  5.787839 )     5.86249596

      6    -0.458E-06     0.0004209793        5.8624952930       0.67  <-- CONV
        O_D=      0.0000000 O_OD=      0.0060785 O_TOT=      5.8624953 <-- SPRD
 Delta: O_D= -0.4107410E-14 O_OD= -0.4580198E-06 O_TOT= -0.4580198E-06 <-- DLTA
 ------------------------------------------------------------------------------
 Cycle:      7
  WF centre and spread    1  (  1.929280,  1.929280,  1.929280 )     1.95416528
  WF centre and spread    2  (  1.929280,  1.929280,  1.929280 )     1.95416528
  WF centre and spread    3  (  1.929280,  1.929280,  1.929280 )     1.95416528
  Sum of centres and spreads (  5.787839,  5.787839,  5.787839 )     5.86249585

      7    -0.115E-06     0.0002457448        5.8624951781       0.78  <-- CONV
        O_D=      0.0000000 O_OD=      0.0060784 O_TOT=      5.8624952 <-- SPRD
 Delta: O_D= -0.1584476E-14 O_OD= -0.1148954E-06 O_TOT= -0.1148954E-06 <-- DLTA
 ------------------------------------------------------------------------------
 Cycle:      8
  WF centre and spread    1  (  1.929280,  1.929280,  1.929280 )     1.95416526
  WF centre and spread    2  (  1.929280,  1.929280,  1.929280 )     1.95416526
  WF centre and spread    3  (  1.929280,  1.929280,  1.929280 )     1.95416526
  Sum of centres and spreads (  5.787839,  5.787839,  5.787839 )     5.86249577

      8    -0.754E-07     0.0001549168        5.8624951027       0.89  <-- CONV
        O_D=      0.0000000 O_OD=      0.0060783 O_TOT=      5.8624951 <-- SPRD
 Delta: O_D= -0.2012827E-14 O_OD= -0.7544685E-07 O_TOT= -0.7544685E-07 <-- DLTA
 ------------------------------------------------------------------------------
 Cycle:      9
  WF centre and spread    1  (  1.929280,  1.929280,  1.929280 )     1.95416525
  WF centre and spread    2  (  1.929280,  1.929280,  1.929280 )     1.95416525
  WF centre and spread    3  (  1.929280,  1.929280,  1.929280 )     1.95416525
  Sum of centres and spreads (  5.787839,  5.787839,  5.787839 )     5.86249574

      9    -0.358E-07     0.0001054224        5.8624950668       1.00  <-- CONV
        O_D=      0.0000000 O_OD=      0.0060783 O_TOT=      5.8624951 <-- SPRD
 Delta: O_D= -0.5852053E-15 O_OD= -0.3580313E-07 O_TOT= -0.3580313E-07 <-- DLTA
 ------------------------------------------------------------------------------
 Cycle:     10
  WF centre and spread    1  (  1.929280,  1.929280,  1.929280 )     1.95416524
  WF centre and spread    2  (  1.929280,  1.929280,  1.929280 )     1.95416524
  WF centre and spread    3  (  1.929280,  1.929280,  1.929280 )     1.95416524
  Sum of centres and spreads (  5.787839,  5.787839,  5.787839 )     5.86249572

     10    -0.148E-07     0.0000768356        5.8624950521       1.12  <-- CONV
        O_D=      0.0000000 O_OD=      0.0060783 O_TOT=      5.8624951 <-- SPRD
 Delta: O_D= -0.1237476E-14 O_OD= -0.1476975E-07 O_TOT= -0.1476975E-07 <-- DLTA
 ------------------------------------------------------------------------------
 Cycle:     11
  WF centre and spread    1  (  1.929280,  1.929280,  1.929280 )     1.95416524
  WF centre and spread    2  (  1.929280,  1.929280,  1.929280 )     1.95416524
  WF centre and spread    3  (  1.929280,  1.929280,  1.929280 )     1.95416524
  Sum of centres and spreads (  5.787839,  5.787839,  5.787839 )     5.86249572

     11    -0.294E-11     0.0000400733        5.8624950521       1.19  <-- CONV
        O_D=      0.0000000 O_OD=      0.0060783 O_TOT=      5.8624951 <-- SPRD
 Delta: O_D= -0.1877942E-18 O_OD= -0.2941754E-11 O_TOT= -0.2941647E-11 <-- DLTA
 ------------------------------------------------------------------------------
 Cycle:     12
  WF centre and spread    1  (  1.929280,  1.929280,  1.929280 )     1.95416524
  WF centre and spread    2  (  1.929280,  1.929280,  1.929280 )     1.95416524
  WF centre and spread    3  (  1.929280,  1.929280,  1.929280 )     1.95416524
  Sum of centres and spreads (  5.787839,  5.787839,  5.787839 )     5.86249572

     12    -0.467E-08     0.0000400614        5.8624950474       1.30  <-- CONV
        O_D=      0.0000000 O_OD=      0.0060783 O_TOT=      5.8624950 <-- SPRD
 Delta: O_D=  0.4064675E-16 O_OD= -0.4667620E-08 O_TOT= -0.4667620E-08 <-- DLTA
 ------------------------------------------------------------------------------
 Cycle:     13
  WF centre and spread    1  (  1.929280,  1.929280,  1.929280 )     1.95416524
  WF centre and spread    2  (  1.929280,  1.929280,  1.929280 )     1.95416524
  WF centre and spread    3  (  1.929280,  1.929280,  1.929280 )     1.95416524
  Sum of centres and spreads (  5.787839,  5.787839,  5.787839 )     5.86249572

     13    -0.123E-11     0.0000284089        5.8624950474       1.37  <-- CONV
        O_D=      0.0000000 O_OD=      0.0060783 O_TOT=      5.8624950 <-- SPRD
 Delta: O_D= -0.3921897E-18 O_OD= -0.1233876E-11 O_TOT= -0.1233680E-11 <-- DLTA
 ------------------------------------------------------------------------------
 Cycle:     14
  WF centre and spread    1  (  1.929280,  1.929280,  1.929280 )     1.95416524
  WF centre and spread    2  (  1.929280,  1.929280,  1.929280 )     1.95416524
  WF centre and spread    3  (  1.929280,  1.929280,  1.929280 )     1.95416524
  Sum of centres and spreads (  5.787839,  5.787839,  5.787839 )     5.86249572

     14    -0.246E-11     0.0000283975        5.8624950474       1.44  <-- CONV
        O_D=      0.0000000 O_OD=      0.0060783 O_TOT=      5.8624950 <-- SPRD
 Delta: O_D= -0.7889544E-18 O_OD= -0.2464644E-11 O_TOT= -0.2464695E-11 <-- DLTA
 ------------------------------------------------------------------------------
 Cycle:     15
  WF centre and spread    1  (  1.929280,  1.929280,  1.929280 )     1.95416524
  WF centre and spread    2  (  1.929280,  1.929280,  1.929280 )     1.95416524
  WF centre and spread    3  (  1.929280,  1.929280,  1.929280 )     1.95416524
  Sum of centres and spreads (  5.787839,  5.787839,  5.787839 )     5.86249572

     15    -0.131E-08     0.0000283747        5.8624950461       1.55  <-- CONV
        O_D=      0.0000000 O_OD=      0.0060783 O_TOT=      5.8624950 <-- SPRD
 Delta: O_D=  0.4790948E-15 O_OD= -0.1307421E-08 O_TOT= -0.1307422E-08 <-- DLTA
 ------------------------------------------------------------------------------
 Cycle:     16
  WF centre and spread    1  (  1.929280,  1.929280,  1.929280 )     1.95416524
  WF centre and spread    2  (  1.929280,  1.929280,  1.929280 )     1.95416524
  WF centre and spread    3  (  1.929280,  1.929280,  1.929280 )     1.95416524
  Sum of centres and spreads (  5.787839,  5.787839,  5.787839 )     5.86249572

     16    -0.110E-11     0.0000268664        5.8624950461       1.62  <-- CONV
        O_D=      0.0000000 O_OD=      0.0060783 O_TOT=      5.8624950 <-- SPRD
 Delta: O_D= -0.1168661E-17 O_OD= -0.1103311E-11 O_TOT= -0.1103118E-11 <-- DLTA
 ------------------------------------------------------------------------------
 Cycle:     17
  WF centre and spread    1  (  1.929280,  1.929280,  1.929280 )     1.95416524
  WF centre and spread    2  (  1.929280,  1.929280,  1.929280 )     1.95416524
  WF centre and spread    3  (  1.929280,  1.929280,  1.929280 )     1.95416524
  Sum of centres and spreads (  5.787839,  5.787839,  5.787839 )     5.86249572

     17    -0.220E-11     0.0000268523        5.8624950461       1.69  <-- CONV
        O_D=      0.0000000 O_OD=      0.0060783 O_TOT=      5.8624950 <-- SPRD
 Delta: O_D= -0.2328342E-17 O_OD= -0.2203509E-11 O_TOT= -0.2203571E-11 <-- DLTA
 ------------------------------------------------------------------------------
 Cycle:     18
  WF centre and spread    1  (  1.929280,  1.929280,  1.929280 )     1.95416524
  WF centre and spread    2  (  1.929280,  1.929280,  1.929280 )     1.95416524
  WF centre and spread    3  (  1.929280,  1.929280,  1.929280 )     1.95416524
  Sum of centres and spreads (  5.787839,  5.787839,  5.787839 )     5.86249572

     18    -0.104E-08     0.0000268241        5.8624950451       1.80  <-- CONV
        O_D=      0.0000000 O_OD=      0.0060783 O_TOT=      5.8624950 <-- SPRD
 Delta: O_D= -0.6254652E-15 O_OD= -0.1039100E-08 O_TOT= -0.1039099E-08 <-- DLTA
 ------------------------------------------------------------------------------
 Cycle:     19
  WF centre and spread    1  (  1.929280,  1.929280,  1.929280 )     1.95416524
  WF centre and spread    2  (  1.929280,  1.929280,  1.929280 )     1.95416524
  WF centre and spread    3  (  1.929280,  1.929280,  1.929280 )     1.95416524
  Sum of centres and spreads (  5.787839,  5.787839,  5.787839 )     5.86249572

     19    -0.286E-12     0.0000120517        5.8624950451       1.88  <-- CONV
        O_D=      0.0000000 O_OD=      0.0060783 O_TOT=      5.8624950 <-- SPRD
 Delta: O_D=  0.9697362E-19 O_OD= -0.2856404E-12 O_TOT= -0.2859935E-12 <-- DLTA
 ------------------------------------------------------------------------------
 Cycle:     20
  WF centre and spread    1  (  1.929280,  1.929280,  1.929280 )     1.95416524
  WF centre and spread    2  (  1.929280,  1.929280,  1.929280 )     1.95416524
  WF centre and spread    3  (  1.929280,  1.929280,  1.929280 )     1.95416524
  Sum of centres and spreads (  5.787839,  5.787839,  5.787839 )     5.86249572

     20    -0.507E-12     0.0000120519        5.8624950451       1.94  <-- CONV
        O_D=      0.0000000 O_OD=      0.0060783 O_TOT=      5.8624950 <-- SPRD
 Delta: O_D= -0.7636715E-19 O_OD= -0.5075888E-12 O_TOT= -0.5071499E-12 <-- DLTA
 ------------------------------------------------------------------------------
 Cycle:     21
  WF centre and spread    1  (  1.929280,  1.929280,  1.929280 )     1.95416524
  WF centre and spread    2  (  1.929280,  1.929280,  1.929280 )     1.95416524
  WF centre and spread    3  (  1.929280,  1.929280,  1.929280 )     1.95416524
  Sum of centres and spreads (  5.787839,  5.787839,  5.787839 )     5.86249572

     21    -0.729E-12     0.0000120500        5.8624950451       2.02  <-- CONV
        O_D=      0.0000000 O_OD=      0.0060783 O_TOT=      5.8624950 <-- SPRD
 Delta: O_D= -0.2428987E-18 O_OD= -0.7293220E-12 O_TOT= -0.7291945E-12 <-- DLTA
 ------------------------------------------------------------------------------
 Cycle:     22
  WF centre and spread    1  (  1.929280,  1.929280,  1.929280 )     1.95416524
  WF centre and spread    2  (  1.929280,  1.929280,  1.929280 )     1.95416524
  WF centre and spread    3  (  1.929280,  1.929280,  1.929280 )     1.95416524
  Sum of centres and spreads (  5.787839,  5.787839,  5.787839 )     5.86249572

     22    -0.222E-12     0.0000120461        5.8624950451       2.08  <-- CONV
        O_D=      0.0000000 O_OD=      0.0060783 O_TOT=      5.8624950 <-- SPRD
 Delta: O_D= -0.1709397E-18 O_OD= -0.2216309E-12 O_TOT= -0.2220446E-12 <-- DLTA
 ------------------------------------------------------------------------------
 Cycle:     23
  WF centre and spread    1  (  1.929280,  1.929280,  1.929280 )     1.95416524
  WF centre and spread    2  (  1.929280,  1.929280,  1.929280 )     1.95416524
  WF centre and spread    3  (  1.929280,  1.929280,  1.929280 )     1.95416524
  Sum of centres and spreads (  5.787839,  5.787839,  5.787839 )     5.86249572

     23    -0.444E-12     0.0000120441        5.8624950451       2.16  <-- CONV
        O_D=      0.0000000 O_OD=      0.0060783 O_TOT=      5.8624950 <-- SPRD
 Delta: O_D= -0.3342182E-18 O_OD= -0.4437362E-12 O_TOT= -0.4440892E-12 <-- DLTA
 ------------------------------------------------------------------------------

             <<<     Delta < 1.000E-12  over  5 iterations     >>>
             <<< Wannierisation convergence criteria satisfied >>>

 Final State
  WF centre and spread    1  (  1.929280,  1.929280,  1.929280 )     1.95416524
  WF centre and spread    2  (  1.929280,  1.929280,  1.929280 )     1.95416524
  WF centre and spread    3  (  1.929280,  1.929280,  1.929280 )     1.95416524
  Sum of centres and spreads (  5.787839,  5.787839,  5.787839 )     5.86249572

         Spreads (Ang^2)       Omega I      =     5.856416778
        ================       Omega D      =     0.000000000
                               Omega OD     =     0.006078267
    Final Spread (Ang^2)       Omega Total  =     5.862495045
 ------------------------------------------------------------------------------
 Time for wannierise            2.183 (sec)

 Writing checkpoint file svo.chk... done

 *---------------------------------------------------------------------------*
 |                               PLOTTING                                    |
 *---------------------------------------------------------------------------*


 Calculating interpolated band-structure

 Time to calculate interpolated band structure       1.377 (sec)

 Time for plotting             12.795 (sec)
 Total Execution Time          47.374 (sec)

 *===========================================================================*
 |                             TIMING INFORMATION                            |
 *===========================================================================*
 |    Tag                                                Ncalls      Time (s)|
 |---------------------------------------------------------------------------|
 |kmesh: get                                        :         1        31.637|
 |overlap: allocate                                 :         1         0.003|
 |overlap: read                                     :         1         0.319|
 |wann: main                                        :         1         2.183|
 |plot: main                                        :         1        12.795|
 *---------------------------------------------------------------------------*

 All done: wannier90 exiting
