  20  20   0   0
  0.1133190E+02  0.5440291E-09  0.5419717E-09  0.7686593E-09  0.5000000E-15
   1.0000000000000000E-004
  CAR 
 PrNiO3                                  
      8.00000000     -2.00000000 5001      5.01391943      1.00000000
     -2.000  0.1906E-02  0.8000E+02
     -1.998  0.3304E-02  0.8000E+02
     -1.996  0.5084E-02  0.8000E+02
     -1.994  0.7247E-02  0.8000E+02
     -1.992  0.9791E-02  0.8000E+02
     -1.990  0.1272E-01  0.8000E+02
     -1.988  0.1603E-01  0.8000E+02
     -1.986  0.1972E-01  0.8000E+02
     -1.984  0.2379E-01  0.8000E+02
     -1.982  0.2825E-01  0.8000E+02
     -1.980  0.3308E-01  0.8000E+02
     -1.978  0.3830E-01  0.8000E+02
     -1.976  0.4390E-01  0.8000E+02
     -1.974  0.4989E-01  0.8000E+02
     -1.972  0.5625E-01  0.8000E+02
     -1.970  0.6300E-01  0.8000E+02
     -1.968  0.7013E-01  0.8000E+02
     -1.966  0.7764E-01  0.8000E+02
     -1.964  0.8554E-01  0.8000E+02
     -1.962  0.9381E-01  0.8000E+02
     -1.960  0.1025E+00  0.8000E+02
     -1.958  0.1115E+00  0.8000E+02
     -1.956  0.1209E+00  0.8000E+02
     -1.954  0.1307E+00  0.8000E+02
     -1.952  0.1409E+00  0.8000E+02
     -1.950  0.1515E+00  0.8000E+02
     -1.948  0.1625E+00  0.8000E+02
     -1.946  0.1738E+00  0.8000E+02
     -1.944  0.1855E+00  0.8000E+02
     -1.942  0.1976E+00  0.8000E+02
     -1.940  0.2101E+00  0.8000E+02
     -1.938  0.2229E+00  0.8001E+02
     -1.936  0.2362E+00  0.8001E+02
     -1.934  0.2498E+00  0.8001E+02
     -1.932  0.2638E+00  0.8001E+02
     -1.930  0.2782E+00  0.8001E+02
     -1.928  0.2930E+00  0.8001E+02
     -1.926  0.3081E+00  0.8001E+02
     -1.924  0.3236E+00  0.8001E+02
     -1.922  0.3394E+00  0.8001E+02
     -1.920  0.3555E+00  0.8001E+02
     -1.918  0.3719E+00  0.8001E+02
     -1.916  0.3884E+00  0.8001E+02
     -1.914  0.4050E+00  0.8001E+02
     -1.912  0.4216E+00  0.8001E+02
     -1.910  0.4383E+00  0.8001E+02
     -1.908  0.4551E+00  0.8002E+02
     -1.906  0.4719E+00  0.8002E+02
     -1.904  0.4888E+00  0.8002E+02
     -1.902  0.5056E+00  0.8002E+02
     -1.900  0.5221E+00  0.8002E+02
     -1.898  0.5382E+00  0.8002E+02
     -1.896  0.5540E+00  0.8002E+02
     -1.894  0.5694E+00  0.8002E+02
     -1.892  0.5844E+00  0.8002E+02
     -1.890  0.5991E+00  0.8002E+02
     -1.888  0.6134E+00  0.8003E+02
     -1.886  0.6274E+00  0.8003E+02
     -1.884  0.6410E+00  0.8003E+02
     -1.882  0.6542E+00  0.8003E+02
     -1.880  0.6671E+00  0.8003E+02
     -1.878  0.6796E+00  0.8003E+02
     -1.876  0.6917E+00  0.8003E+02
     -1.874  0.7035E+00  0.8004E+02
     -1.872  0.7149E+00  0.8004E+02
     -1.870  0.7260E+00  0.8004E+02
     -1.868  0.7367E+00  0.8004E+02
     -1.866  0.7470E+00  0.8004E+02
     -1.864  0.7570E+00  0.8004E+02
     -1.862  0.7666E+00  0.8004E+02
     -1.860  0.7758E+00  0.8005E+02
     -1.858  0.7847E+00  0.8005E+02
     -1.856  0.7933E+00  0.8005E+02
     -1.854  0.8014E+00  0.8005E+02
     -1.852  0.8092E+00  0.8005E+02
     -1.850  0.8167E+00  0.8005E+02
     -1.848  0.8238E+00  0.8006E+02
     -1.846  0.8305E+00  0.8006E+02
     -1.844  0.8368E+00  0.8006E+02
     -1.842  0.8428E+00  0.8006E+02
     -1.840  0.8485E+00  0.8006E+02
     -1.838  0.8538E+00  0.8006E+02
     -1.836  0.8589E+00  0.8007E+02
     -1.834  0.8640E+00  0.8007E+02
     -1.832  0.8690E+00  0.8007E+02
     -1.830  0.8739E+00  0.8007E+02
     -1.828  0.8789E+00  0.8007E+02
     -1.826  0.8837E+00  0.8007E+02
     -1.824  0.8886E+00  0.8008E+02
     -1.822  0.8934E+00  0.8008E+02
     -1.820  0.8981E+00  0.8008E+02
     -1.818  0.9028E+00  0.8008E+02
     -1.816  0.9075E+00  0.8008E+02
     -1.814  0.9124E+00  0.8008E+02
     -1.812  0.9175E+00  0.8009E+02
     -1.810  0.9227E+00  0.8009E+02
     -1.808  0.9282E+00  0.8009E+02
     -1.806  0.9339E+00  0.8009E+02
     -1.804  0.9398E+00  0.8009E+02
     -1.802  0.9459E+00  0.8010E+02
     -1.800  0.9522E+00  0.8010E+02
     -1.798  0.9586E+00  0.8010E+02
     -1.796  0.9653E+00  0.8010E+02
     -1.794  0.9722E+00  0.8010E+02
     -1.792  0.9793E+00  0.8011E+02
     -1.790  0.9866E+00  0.8011E+02
     -1.788  0.9941E+00  0.8011E+02
     -1.786  0.1002E+01  0.8011E+02
     -1.784  0.1010E+01  0.8011E+02
     -1.782  0.1018E+01  0.8012E+02
     -1.780  0.1026E+01  0.8012E+02
     -1.778  0.1035E+01  0.8012E+02
     -1.776  0.1043E+01  0.8012E+02
     -1.774  0.1052E+01  0.8012E+02
     -1.772  0.1061E+01  0.8013E+02
     -1.770  0.1071E+01  0.8013E+02
     -1.768  0.1080E+01  0.8013E+02
     -1.766  0.1090E+01  0.8013E+02
     -1.764  0.1100E+01  0.8013E+02
     -1.762  0.1110E+01  0.8014E+02
     -1.760  0.1120E+01  0.8014E+02
     -1.758  0.1131E+01  0.8014E+02
     -1.756  0.1142E+01  0.8014E+02
     -1.754  0.1152E+01  0.8015E+02
     -1.752  0.1164E+01  0.8015E+02
     -1.750  0.1175E+01  0.8015E+02
     -1.748  0.1186E+01  0.8015E+02
     -1.746  0.1197E+01  0.8016E+02
     -1.744  0.1208E+01  0.8016E+02
     -1.742  0.1220E+01  0.8016E+02
     -1.740  0.1231E+01  0.8016E+02
     -1.738  0.1243E+01  0.8016E+02
     -1.736  0.1254E+01  0.8017E+02
     -1.734  0.1266E+01  0.8017E+02
     -1.732  0.1278E+01  0.8017E+02
     -1.730  0.1289E+01  0.8017E+02
     -1.728  0.1301E+01  0.8018E+02
     -1.726  0.1313E+01  0.8018E+02
     -1.724  0.1325E+01  0.8018E+02
     -1.722  0.1337E+01  0.8019E+02
     -1.720  0.1349E+01  0.8019E+02
     -1.718  0.1361E+01  0.8019E+02
     -1.716  0.1373E+01  0.8019E+02
     -1.714  0.1391E+01  0.8020E+02
     -1.712  0.1413E+01  0.8020E+02
     -1.710  0.1434E+01  0.8020E+02
     -1.708  0.1454E+01  0.8020E+02
     -1.706  0.1475E+01  0.8021E+02
     -1.704  0.1495E+01  0.8021E+02
     -1.702  0.1515E+01  0.8021E+02
     -1.700  0.1535E+01  0.8022E+02
     -1.698  0.1555E+01  0.8022E+02
     -1.696  0.1574E+01  0.8022E+02
     -1.694  0.1593E+01  0.8023E+02
     -1.692  0.1612E+01  0.8023E+02
     -1.690  0.1631E+01  0.8023E+02
     -1.688  0.1649E+01  0.8024E+02
     -1.686  0.1668E+01  0.8024E+02
     -1.684  0.1686E+01  0.8024E+02
     -1.682  0.1704E+01  0.8025E+02
     -1.680  0.1721E+01  0.8025E+02
     -1.678  0.1739E+01  0.8025E+02
     -1.676  0.1756E+01  0.8026E+02
     -1.674  0.1773E+01  0.8026E+02
     -1.672  0.1789E+01  0.8026E+02
     -1.670  0.1806E+01  0.8027E+02
     -1.668  0.1822E+01  0.8027E+02
     -1.666  0.1838E+01  0.8027E+02
     -1.664  0.1854E+01  0.8028E+02
     -1.662  0.1870E+01  0.8028E+02
     -1.660  0.1886E+01  0.8029E+02
     -1.658  0.1902E+01  0.8029E+02
     -1.656  0.1918E+01  0.8029E+02
     -1.654  0.1934E+01  0.8030E+02
     -1.652  0.1950E+01  0.8030E+02
     -1.650  0.1966E+01  0.8030E+02
     -1.648  0.1983E+01  0.8031E+02
     -1.646  0.1999E+01  0.8031E+02
     -1.644  0.2013E+01  0.8032E+02
     -1.642  0.2027E+01  0.8032E+02
     -1.640  0.2040E+01  0.8032E+02
     -1.638  0.2053E+01  0.8033E+02
     -1.636  0.2066E+01  0.8033E+02
     -1.634  0.2079E+01  0.8034E+02
     -1.632  0.2093E+01  0.8034E+02
     -1.630  0.2106E+01  0.8035E+02
     -1.628  0.2120E+01  0.8035E+02
     -1.626  0.2134E+01  0.8035E+02
     -1.624  0.2147E+01  0.8036E+02
     -1.622  0.2161E+01  0.8036E+02
     -1.620  0.2175E+01  0.8037E+02
     -1.618  0.2189E+01  0.8037E+02
     -1.616  0.2197E+01  0.8038E+02
     -1.614  0.2202E+01  0.8038E+02
     -1.612  0.2207E+01  0.8038E+02
     -1.610  0.2213E+01  0.8039E+02
     -1.608  0.2218E+01  0.8039E+02
     -1.606  0.2224E+01  0.8040E+02
     -1.604  0.2229E+01  0.8040E+02
     -1.602  0.2235E+01  0.8041E+02
     -1.600  0.2241E+01  0.8041E+02
     -1.598  0.2247E+01  0.8042E+02
     -1.596  0.2253E+01  0.8042E+02
     -1.594  0.2259E+01  0.8042E+02
     -1.592  0.2266E+01  0.8043E+02
     -1.590  0.2272E+01  0.8043E+02
     -1.588  0.2278E+01  0.8044E+02
     -1.586  0.2285E+01  0.8044E+02
     -1.584  0.2291E+01  0.8045E+02
     -1.582  0.2298E+01  0.8045E+02
     -1.580  0.2304E+01  0.8046E+02
     -1.578  0.2311E+01  0.8046E+02
     -1.576  0.2317E+01  0.8047E+02
     -1.574  0.2323E+01  0.8047E+02
     -1.572  0.2329E+01  0.8048E+02
     -1.570  0.2336E+01  0.8048E+02
     -1.568  0.2342E+01  0.8048E+02
     -1.566  0.2348E+01  0.8049E+02
     -1.564  0.2354E+01  0.8049E+02
     -1.562  0.2361E+01  0.8050E+02
     -1.560  0.2368E+01  0.8050E+02
     -1.558  0.2378E+01  0.8051E+02
     -1.556  0.2390E+01  0.8051E+02
     -1.554  0.2402E+01  0.8052E+02
     -1.552  0.2415E+01  0.8052E+02
     -1.550  0.2427E+01  0.8053E+02
     -1.548  0.2439E+01  0.8053E+02
     -1.546  0.2451E+01  0.8054E+02
     -1.544  0.2463E+01  0.8054E+02
     -1.542  0.2475E+01  0.8055E+02
     -1.540  0.2487E+01  0.8055E+02
     -1.538  0.2499E+01  0.8056E+02
     -1.536  0.2511E+01  0.8056E+02
     -1.534  0.2524E+01  0.8057E+02
     -1.532  0.2537E+01  0.8057E+02
     -1.530  0.2550E+01  0.8058E+02
     -1.528  0.2568E+01  0.8058E+02
     -1.526  0.2595E+01  0.8059E+02
     -1.524  0.2623E+01  0.8059E+02
     -1.522  0.2651E+01  0.8060E+02
     -1.520  0.2680E+01  0.8060E+02
     -1.518  0.2709E+01  0.8061E+02
     -1.516  0.2740E+01  0.8061E+02
     -1.514  0.2771E+01  0.8062E+02
     -1.512  0.2803E+01  0.8063E+02
     -1.510  0.2835E+01  0.8063E+02
     -1.508  0.2869E+01  0.8064E+02
     -1.506  0.2903E+01  0.8064E+02
     -1.504  0.2937E+01  0.8065E+02
     -1.502  0.2973E+01  0.8065E+02
     -1.500  0.3009E+01  0.8066E+02
     -1.498  0.3046E+01  0.8067E+02
     -1.496  0.3084E+01  0.8067E+02
     -1.494  0.3122E+01  0.8068E+02
     -1.492  0.3162E+01  0.8068E+02
     -1.490  0.3201E+01  0.8069E+02
     -1.488  0.3242E+01  0.8070E+02
     -1.486  0.3283E+01  0.8070E+02
     -1.484  0.3325E+01  0.8071E+02
     -1.482  0.3368E+01  0.8072E+02
     -1.480  0.3412E+01  0.8072E+02
     -1.478  0.3456E+01  0.8073E+02
     -1.476  0.3501E+01  0.8074E+02
     -1.474  0.3547E+01  0.8074E+02
     -1.472  0.3593E+01  0.8075E+02
     -1.470  0.3639E+01  0.8076E+02
     -1.468  0.3686E+01  0.8077E+02
     -1.466  0.3731E+01  0.8077E+02
     -1.464  0.3777E+01  0.8078E+02
     -1.462  0.3822E+01  0.8079E+02
     -1.460  0.3868E+01  0.8080E+02
     -1.458  0.3955E+01  0.8080E+02
     -1.456  0.4163E+01  0.8081E+02
     -1.454  0.4368E+01  0.8082E+02
     -1.452  0.4571E+01  0.8083E+02
     -1.450  0.4693E+01  0.8084E+02
     -1.448  0.4787E+01  0.8085E+02
     -1.446  0.4880E+01  0.8086E+02
     -1.444  0.4972E+01  0.8087E+02
     -1.442  0.5062E+01  0.8088E+02
     -1.440  0.5151E+01  0.8089E+02
     -1.438  0.5238E+01  0.8090E+02
     -1.436  0.5316E+01  0.8091E+02
     -1.434  0.5390E+01  0.8092E+02
     -1.432  0.5456E+01  0.8093E+02
     -1.430  0.5505E+01  0.8094E+02
     -1.428  0.5555E+01  0.8095E+02
     -1.426  0.5608E+01  0.8096E+02
     -1.424  0.5663E+01  0.8098E+02
     -1.422  0.5719E+01  0.8099E+02
     -1.420  0.5779E+01  0.8100E+02
     -1.418  0.5842E+01  0.8101E+02
     -1.416  0.5908E+01  0.8102E+02
     -1.414  0.5977E+01  0.8103E+02
     -1.412  0.6048E+01  0.8105E+02
     -1.410  0.6121E+01  0.8106E+02
     -1.408  0.6197E+01  0.8107E+02
     -1.406  0.6273E+01  0.8108E+02
     -1.404  0.6350E+01  0.8110E+02
     -1.402  0.6403E+01  0.8111E+02
     -1.400  0.6680E+01  0.8112E+02
     -1.398  0.6769E+01  0.8113E+02
     -1.396  0.6850E+01  0.8115E+02
     -1.394  0.6922E+01  0.8116E+02
     -1.392  0.6975E+01  0.8118E+02
     -1.390  0.6988E+01  0.8119E+02
     -1.388  0.7001E+01  0.8120E+02
     -1.386  0.7015E+01  0.8122E+02
     -1.384  0.7030E+01  0.8123E+02
     -1.382  0.7046E+01  0.8125E+02
     -1.380  0.7063E+01  0.8126E+02
     -1.378  0.7078E+01  0.8127E+02
     -1.376  0.7094E+01  0.8129E+02
     -1.374  0.7108E+01  0.8130E+02
     -1.372  0.7120E+01  0.8132E+02
     -1.370  0.7132E+01  0.8133E+02
     -1.368  0.7142E+01  0.8135E+02
     -1.366  0.7156E+01  0.8136E+02
     -1.364  0.7171E+01  0.8137E+02
     -1.362  0.7184E+01  0.8139E+02
     -1.360  0.7195E+01  0.8140E+02
     -1.358  0.7203E+01  0.8142E+02
     -1.356  0.7209E+01  0.8143E+02
     -1.354  0.7213E+01  0.8145E+02
     -1.352  0.7225E+01  0.8146E+02
     -1.350  0.7519E+01  0.8148E+02
     -1.348  0.7566E+01  0.8149E+02
     -1.346  0.7611E+01  0.8151E+02
     -1.344  0.7654E+01  0.8152E+02
     -1.342  0.7695E+01  0.8154E+02
     -1.340  0.7734E+01  0.8155E+02
     -1.338  0.7770E+01  0.8157E+02
     -1.336  0.7805E+01  0.8158E+02
     -1.334  0.7837E+01  0.8160E+02
     -1.332  0.7816E+01  0.8161E+02
     -1.330  0.7722E+01  0.8163E+02
     -1.328  0.7665E+01  0.8165E+02
     -1.326  0.7611E+01  0.8166E+02
     -1.324  0.7561E+01  0.8168E+02
     -1.322  0.7535E+01  0.8169E+02
     -1.320  0.7536E+01  0.8171E+02
     -1.318  0.7537E+01  0.8172E+02
     -1.316  0.7540E+01  0.8174E+02
     -1.314  0.7543E+01  0.8175E+02
     -1.312  0.7548E+01  0.8177E+02
     -1.310  0.7553E+01  0.8178E+02
     -1.308  0.7560E+01  0.8180E+02
     -1.306  0.7568E+01  0.8181E+02
     -1.304  0.7577E+01  0.8183E+02
     -1.302  0.7588E+01  0.8184E+02
     -1.300  0.7600E+01  0.8186E+02
     -1.298  0.7614E+01  0.8187E+02
     -1.296  0.7634E+01  0.8189E+02
     -1.294  0.7662E+01  0.8190E+02
     -1.292  0.7704E+01  0.8192E+02
     -1.290  0.7758E+01  0.8193E+02
     -1.288  0.7819E+01  0.8195E+02
     -1.286  0.7715E+01  0.8196E+02
     -1.284  0.7734E+01  0.8198E+02
     -1.282  0.7755E+01  0.8200E+02
     -1.280  0.7778E+01  0.8201E+02
     -1.278  0.7843E+01  0.8203E+02
     -1.276  0.8179E+01  0.8204E+02
     -1.274  0.8433E+01  0.8206E+02
     -1.272  0.8606E+01  0.8208E+02
     -1.270  0.8700E+01  0.8209E+02
     -1.268  0.8720E+01  0.8211E+02
     -1.266  0.8722E+01  0.8213E+02
     -1.264  0.8734E+01  0.8215E+02
     -1.262  0.8746E+01  0.8216E+02
     -1.260  0.8750E+01  0.8218E+02
     -1.258  0.8638E+01  0.8220E+02
     -1.256  0.8425E+01  0.8222E+02
     -1.254  0.8341E+01  0.8223E+02
     -1.252  0.8375E+01  0.8225E+02
     -1.250  0.8430E+01  0.8227E+02
     -1.248  0.8487E+01  0.8228E+02
     -1.246  0.8555E+01  0.8230E+02
     -1.244  0.8763E+01  0.8232E+02
     -1.242  0.9023E+01  0.8233E+02
     -1.240  0.9274E+01  0.8235E+02
     -1.238  0.9509E+01  0.8237E+02
     -1.236  0.9726E+01  0.8239E+02
     -1.234  0.9926E+01  0.8241E+02
     -1.232  0.1011E+02  0.8243E+02
     -1.230  0.1028E+02  0.8245E+02
     -1.228  0.1040E+02  0.8247E+02
     -1.226  0.1048E+02  0.8249E+02
     -1.224  0.1057E+02  0.8251E+02
     -1.222  0.1066E+02  0.8253E+02
     -1.220  0.1075E+02  0.8256E+02
     -1.218  0.1084E+02  0.8258E+02
     -1.216  0.1094E+02  0.8260E+02
     -1.214  0.1104E+02  0.8262E+02
     -1.212  0.1111E+02  0.8264E+02
     -1.210  0.1116E+02  0.8267E+02
     -1.208  0.1117E+02  0.8269E+02
     -1.206  0.1115E+02  0.8271E+02
     -1.204  0.1111E+02  0.8273E+02
     -1.202  0.1103E+02  0.8276E+02
     -1.200  0.1095E+02  0.8278E+02
     -1.198  0.1087E+02  0.8280E+02
     -1.196  0.1080E+02  0.8282E+02
     -1.194  0.1072E+02  0.8284E+02
     -1.192  0.1064E+02  0.8286E+02
     -1.190  0.1055E+02  0.8288E+02
     -1.188  0.1048E+02  0.8291E+02
     -1.186  0.1040E+02  0.8293E+02
     -1.184  0.1031E+02  0.8295E+02
     -1.182  0.1020E+02  0.8297E+02
     -1.180  0.1008E+02  0.8299E+02
     -1.178  0.9941E+01  0.8301E+02
     -1.176  0.1072E+02  0.8303E+02
     -1.174  0.1172E+02  0.8305E+02
     -1.172  0.1264E+02  0.8308E+02
     -1.170  0.1025E+02  0.8310E+02
     -1.168  0.1008E+02  0.8312E+02
     -1.166  0.9919E+01  0.8314E+02
     -1.164  0.9756E+01  0.8316E+02
     -1.162  0.9322E+01  0.8318E+02
     -1.160  0.8869E+01  0.8320E+02
     -1.158  0.8818E+01  0.8321E+02
     -1.156  0.8766E+01  0.8323E+02
     -1.154  0.8714E+01  0.8325E+02
     -1.152  0.8669E+01  0.8327E+02
     -1.150  0.8654E+01  0.8328E+02
     -1.148  0.8652E+01  0.8330E+02
     -1.146  0.8667E+01  0.8332E+02
     -1.144  0.8712E+01  0.8333E+02
     -1.142  0.8823E+01  0.8335E+02
     -1.140  0.1120E+02  0.8337E+02
     -1.138  0.1125E+02  0.8339E+02
     -1.136  0.1111E+02  0.8342E+02
     -1.134  0.1078E+02  0.8344E+02
     -1.132  0.1066E+02  0.8346E+02
     -1.130  0.1129E+02  0.8348E+02
     -1.128  0.1137E+02  0.8350E+02
     -1.126  0.1133E+02  0.8353E+02
     -1.124  0.1123E+02  0.8355E+02
     -1.122  0.1119E+02  0.8357E+02
     -1.120  0.1125E+02  0.8359E+02
     -1.118  0.1140E+02  0.8362E+02
     -1.116  0.1055E+02  0.8364E+02
     -1.114  0.1017E+02  0.8366E+02
     -1.112  0.9034E+01  0.8368E+02
     -1.110  0.7960E+01  0.8370E+02
     -1.108  0.7021E+01  0.8371E+02
     -1.106  0.6176E+01  0.8373E+02
     -1.104  0.5556E+01  0.8374E+02
     -1.102  0.5076E+01  0.8375E+02
     -1.100  0.4664E+01  0.8376E+02
     -1.098  0.4319E+01  0.8377E+02
     -1.096  0.4039E+01  0.8378E+02
     -1.094  0.3820E+01  0.8378E+02
     -1.092  0.3641E+01  0.8379E+02
     -1.090  0.3494E+01  0.8380E+02
     -1.088  0.3365E+01  0.8380E+02
     -1.086  0.3240E+01  0.8381E+02
     -1.084  0.3119E+01  0.8382E+02
     -1.082  0.3002E+01  0.8382E+02
     -1.080  0.2888E+01  0.8383E+02
     -1.078  0.2778E+01  0.8384E+02
     -1.076  0.2672E+01  0.8384E+02
     -1.074  0.2569E+01  0.8385E+02
     -1.072  0.2470E+01  0.8385E+02
     -1.070  0.2375E+01  0.8386E+02
     -1.068  0.2283E+01  0.8386E+02
     -1.066  0.2195E+01  0.8386E+02
     -1.064  0.2111E+01  0.8387E+02
     -1.062  0.8039E+01  0.8388E+02
     -1.060  0.6003E+01  0.8389E+02
     -1.058  0.4683E+01  0.8390E+02
     -1.056  0.4166E+01  0.8391E+02
     -1.054  0.4217E+01  0.8392E+02
     -1.052  0.4270E+01  0.8393E+02
     -1.050  0.4330E+01  0.8394E+02
     -1.048  0.4415E+01  0.8395E+02
     -1.046  0.4536E+01  0.8396E+02
     -1.044  0.4692E+01  0.8397E+02
     -1.042  0.4883E+01  0.8398E+02
     -1.040  0.5110E+01  0.8399E+02
     -1.038  0.5372E+01  0.8400E+02
     -1.036  0.5670E+01  0.8401E+02
     -1.034  0.5992E+01  0.8402E+02
     -1.032  0.6323E+01  0.8403E+02
     -1.030  0.6664E+01  0.8404E+02
     -1.028  0.7029E+01  0.8406E+02
     -1.026  0.7422E+01  0.8407E+02
     -1.024  0.7827E+01  0.8409E+02
     -1.022  0.8230E+01  0.8410E+02
     -1.020  0.8626E+01  0.8412E+02
     -1.018  0.9016E+01  0.8414E+02
     -1.016  0.9399E+01  0.8416E+02
     -1.014  0.9776E+01  0.8418E+02
     -1.012  0.1015E+02  0.8420E+02
     -1.010  0.1050E+02  0.8422E+02
     -1.008  0.1057E+02  0.8424E+02
     -1.006  0.1025E+02  0.8426E+02
     -1.004  0.9948E+01  0.8428E+02
     -1.002  0.9722E+01  0.8430E+02
     -1.000  0.9527E+01  0.8432E+02
     -0.998  0.1011E+02  0.8434E+02
     -0.996  0.1075E+02  0.8436E+02
     -0.994  0.1135E+02  0.8438E+02
     -0.992  0.1191E+02  0.8440E+02
     -0.990  0.1023E+02  0.8443E+02
     -0.988  0.1003E+02  0.8445E+02
     -0.986  0.9841E+01  0.8447E+02
     -0.984  0.8981E+01  0.8448E+02
     -0.982  0.8700E+01  0.8450E+02
     -0.980  0.8607E+01  0.8452E+02
     -0.978  0.8574E+01  0.8454E+02
     -0.976  0.8808E+01  0.8455E+02
     -0.974  0.9563E+01  0.8457E+02
     -0.972  0.9555E+01  0.8459E+02
     -0.970  0.9546E+01  0.8461E+02
     -0.968  0.9536E+01  0.8463E+02
     -0.966  0.9525E+01  0.8465E+02
     -0.964  0.9514E+01  0.8467E+02
     -0.962  0.8018E+01  0.8468E+02
     -0.960  0.8041E+01  0.8470E+02
     -0.958  0.8065E+01  0.8472E+02
     -0.956  0.9765E+01  0.8473E+02
     -0.954  0.9668E+01  0.8475E+02
     -0.952  0.9540E+01  0.8477E+02
     -0.950  0.9381E+01  0.8479E+02
     -0.948  0.9189E+01  0.8481E+02
     -0.946  0.9097E+01  0.8483E+02
     -0.944  0.9169E+01  0.8485E+02
     -0.942  0.9252E+01  0.8486E+02
     -0.940  0.9325E+01  0.8488E+02
     -0.938  0.9379E+01  0.8490E+02
     -0.936  0.9430E+01  0.8492E+02
     -0.934  0.9479E+01  0.8494E+02
     -0.932  0.9528E+01  0.8496E+02
     -0.930  0.9576E+01  0.8498E+02
     -0.928  0.9626E+01  0.8500E+02
     -0.926  0.9676E+01  0.8502E+02
     -0.924  0.9729E+01  0.8504E+02
     -0.922  0.9782E+01  0.8506E+02
     -0.920  0.9846E+01  0.8507E+02
     -0.918  0.1007E+02  0.8509E+02
     -0.916  0.1026E+02  0.8511E+02
     -0.914  0.1042E+02  0.8514E+02
     -0.912  0.1053E+02  0.8516E+02
     -0.910  0.1061E+02  0.8518E+02
     -0.908  0.1068E+02  0.8520E+02
     -0.906  0.1075E+02  0.8522E+02
     -0.904  0.1118E+02  0.8524E+02
     -0.902  0.1094E+02  0.8526E+02
     -0.900  0.1102E+02  0.8529E+02
     -0.898  0.1283E+02  0.8531E+02
     -0.896  0.1347E+02  0.8534E+02
     -0.894  0.1228E+02  0.8536E+02
     -0.892  0.1147E+02  0.8539E+02
     -0.890  0.1089E+02  0.8541E+02
     -0.888  0.1057E+02  0.8543E+02
     -0.886  0.1047E+02  0.8545E+02
     -0.884  0.1041E+02  0.8547E+02
     -0.882  0.1035E+02  0.8549E+02
     -0.880  0.1028E+02  0.8551E+02
     -0.878  0.1021E+02  0.8553E+02
     -0.876  0.1013E+02  0.8555E+02
     -0.874  0.1005E+02  0.8557E+02
     -0.872  0.9417E+01  0.8559E+02
     -0.870  0.9227E+01  0.8561E+02
     -0.868  0.9044E+01  0.8563E+02
     -0.866  0.8874E+01  0.8565E+02
     -0.864  0.8706E+01  0.8567E+02
     -0.862  0.8528E+01  0.8568E+02
     -0.860  0.8347E+01  0.8570E+02
     -0.858  0.8210E+01  0.8572E+02
     -0.856  0.8111E+01  0.8573E+02
     -0.854  0.7983E+01  0.8575E+02
     -0.852  0.7823E+01  0.8577E+02
     -0.850  0.7822E+01  0.8578E+02
     -0.848  0.7818E+01  0.8580E+02
     -0.846  0.7735E+01  0.8581E+02
     -0.844  0.7630E+01  0.8583E+02
     -0.842  0.7529E+01  0.8584E+02
     -0.840  0.7432E+01  0.8586E+02
     -0.838  0.7338E+01  0.8587E+02
     -0.836  0.7248E+01  0.8589E+02
     -0.834  0.7162E+01  0.8590E+02
     -0.832  0.7079E+01  0.8592E+02
     -0.830  0.7000E+01  0.8593E+02
     -0.828  0.6888E+01  0.8594E+02
     -0.826  0.6737E+01  0.8596E+02
     -0.824  0.6593E+01  0.8597E+02
     -0.822  0.6458E+01  0.8598E+02
     -0.820  0.6331E+01  0.8600E+02
     -0.818  0.5580E+01  0.8601E+02
     -0.816  0.5494E+01  0.8602E+02
     -0.814  0.5463E+01  0.8603E+02
     -0.812  0.5431E+01  0.8604E+02
     -0.810  0.5399E+01  0.8605E+02
     -0.808  0.5367E+01  0.8606E+02
     -0.806  0.5335E+01  0.8607E+02
     -0.804  0.5303E+01  0.8608E+02
     -0.802  0.5271E+01  0.8609E+02
     -0.800  0.5241E+01  0.8610E+02
     -0.798  0.5215E+01  0.8612E+02
     -0.796  0.5194E+01  0.8613E+02
     -0.794  0.5179E+01  0.8614E+02
     -0.792  0.5169E+01  0.8615E+02
     -0.790  0.5165E+01  0.8616E+02
     -0.788  0.5161E+01  0.8617E+02
     -0.786  0.5159E+01  0.8618E+02
     -0.784  0.5159E+01  0.8619E+02
     -0.782  0.5159E+01  0.8620E+02
     -0.780  0.5161E+01  0.8621E+02
     -0.778  0.5164E+01  0.8622E+02
     -0.776  0.5168E+01  0.8623E+02
     -0.774  0.5174E+01  0.8624E+02
     -0.772  0.5192E+01  0.8625E+02
     -0.770  0.5224E+01  0.8626E+02
     -0.768  0.5267E+01  0.8627E+02
     -0.766  0.5309E+01  0.8628E+02
     -0.764  0.5345E+01  0.8629E+02
     -0.762  0.5376E+01  0.8630E+02
     -0.760  0.5395E+01  0.8631E+02
     -0.758  0.5397E+01  0.8632E+02
     -0.756  0.5397E+01  0.8634E+02
     -0.754  0.5393E+01  0.8635E+02
     -0.752  0.5409E+01  0.8636E+02
     -0.750  0.5429E+01  0.8637E+02
     -0.748  0.5444E+01  0.8638E+02
     -0.746  0.5456E+01  0.8639E+02
     -0.744  0.5466E+01  0.8640E+02
     -0.742  0.5445E+01  0.8641E+02
     -0.740  0.5421E+01  0.8642E+02
     -0.738  0.5396E+01  0.8643E+02
     -0.736  0.5369E+01  0.8644E+02
     -0.734  0.5340E+01  0.8645E+02
     -0.732  0.5309E+01  0.8646E+02
     -0.730  0.5277E+01  0.8648E+02
     -0.728  0.5243E+01  0.8649E+02
     -0.726  0.5097E+01  0.8650E+02
     -0.724  0.4898E+01  0.8651E+02
     -0.722  0.4691E+01  0.8652E+02
     -0.720  0.4477E+01  0.8653E+02
     -0.718  0.4258E+01  0.8653E+02
     -0.716  0.4203E+01  0.8654E+02
     -0.714  0.4201E+01  0.8655E+02
     -0.712  0.4201E+01  0.8656E+02
     -0.710  0.4201E+01  0.8657E+02
     -0.708  0.4200E+01  0.8658E+02
     -0.706  0.4199E+01  0.8658E+02
     -0.704  0.4199E+01  0.8659E+02
     -0.702  0.4199E+01  0.8660E+02
     -0.700  0.3823E+01  0.8661E+02
     -0.698  0.3806E+01  0.8662E+02
     -0.696  0.3789E+01  0.8662E+02
     -0.694  0.3772E+01  0.8663E+02
     -0.692  0.3756E+01  0.8664E+02
     -0.690  0.3740E+01  0.8665E+02
     -0.688  0.3723E+01  0.8665E+02
     -0.686  0.3707E+01  0.8666E+02
     -0.684  0.3692E+01  0.8667E+02
     -0.682  0.3676E+01  0.8668E+02
     -0.680  0.3660E+01  0.8668E+02
     -0.678  0.3645E+01  0.8669E+02
     -0.676  0.3630E+01  0.8670E+02
     -0.674  0.3616E+01  0.8671E+02
     -0.672  0.3601E+01  0.8671E+02
     -0.670  0.3588E+01  0.8672E+02
     -0.668  0.3574E+01  0.8673E+02
     -0.666  0.3561E+01  0.8673E+02
     -0.664  0.3548E+01  0.8674E+02
     -0.662  0.3535E+01  0.8675E+02
     -0.660  0.3522E+01  0.8676E+02
     -0.658  0.3510E+01  0.8676E+02
     -0.656  0.3498E+01  0.8677E+02
     -0.654  0.3486E+01  0.8678E+02
     -0.652  0.3474E+01  0.8678E+02
     -0.650  0.3463E+01  0.8679E+02
     -0.648  0.3452E+01  0.8680E+02
     -0.646  0.3441E+01  0.8680E+02
     -0.644  0.3434E+01  0.8681E+02
     -0.642  0.3430E+01  0.8682E+02
     -0.640  0.3427E+01  0.8683E+02
     -0.638  0.3424E+01  0.8683E+02
     -0.636  0.3422E+01  0.8684E+02
     -0.634  0.3419E+01  0.8685E+02
     -0.632  0.3417E+01  0.8685E+02
     -0.630  0.3415E+01  0.8686E+02
     -0.628  0.3413E+01  0.8687E+02
     -0.626  0.3411E+01  0.8687E+02
     -0.624  0.3580E+01  0.8688E+02
     -0.622  0.3587E+01  0.8689E+02
     -0.620  0.3595E+01  0.8689E+02
     -0.618  0.3602E+01  0.8690E+02
     -0.616  0.3610E+01  0.8691E+02
     -0.614  0.3618E+01  0.8692E+02
     -0.612  0.3626E+01  0.8692E+02
     -0.610  0.3634E+01  0.8693E+02
     -0.608  0.3643E+01  0.8694E+02
     -0.606  0.3652E+01  0.8695E+02
     -0.604  0.3831E+01  0.8695E+02
     -0.602  0.3848E+01  0.8696E+02
     -0.600  0.3863E+01  0.8697E+02
     -0.598  0.3876E+01  0.8698E+02
     -0.596  0.3888E+01  0.8698E+02
     -0.594  0.3898E+01  0.8699E+02
     -0.592  0.3908E+01  0.8700E+02
     -0.590  0.3919E+01  0.8701E+02
     -0.588  0.3930E+01  0.8701E+02
     -0.586  0.3944E+01  0.8702E+02
     -0.584  0.3960E+01  0.8703E+02
     -0.582  0.3975E+01  0.8704E+02
     -0.580  0.3992E+01  0.8705E+02
     -0.578  0.4010E+01  0.8705E+02
     -0.576  0.4033E+01  0.8706E+02
     -0.574  0.4055E+01  0.8707E+02
     -0.572  0.4079E+01  0.8708E+02
     -0.570  0.4103E+01  0.8709E+02
     -0.568  0.4128E+01  0.8710E+02
     -0.566  0.4153E+01  0.8710E+02
     -0.564  0.4179E+01  0.8711E+02
     -0.562  0.4203E+01  0.8712E+02
     -0.560  0.4222E+01  0.8713E+02
     -0.558  0.4242E+01  0.8714E+02
     -0.556  0.4262E+01  0.8715E+02
     -0.554  0.4283E+01  0.8715E+02
     -0.552  0.4304E+01  0.8716E+02
     -0.550  0.4325E+01  0.8717E+02
     -0.548  0.4348E+01  0.8718E+02
     -0.546  0.4371E+01  0.8719E+02
     -0.544  0.4394E+01  0.8720E+02
     -0.542  0.4419E+01  0.8721E+02
     -0.540  0.4444E+01  0.8722E+02
     -0.538  0.4470E+01  0.8722E+02
     -0.536  0.4497E+01  0.8723E+02
     -0.534  0.4524E+01  0.8724E+02
     -0.532  0.4552E+01  0.8725E+02
     -0.530  0.4581E+01  0.8726E+02
     -0.528  0.4611E+01  0.8727E+02
     -0.526  0.4613E+01  0.8728E+02
     -0.524  0.4563E+01  0.8729E+02
     -0.522  0.4590E+01  0.8730E+02
     -0.520  0.4598E+01  0.8731E+02
     -0.518  0.4596E+01  0.8732E+02
     -0.516  0.4608E+01  0.8732E+02
     -0.514  0.4621E+01  0.8733E+02
     -0.512  0.4635E+01  0.8734E+02
     -0.510  0.4650E+01  0.8735E+02
     -0.508  0.4674E+01  0.8736E+02
     -0.506  0.4598E+01  0.8737E+02
     -0.504  0.4625E+01  0.8738E+02
     -0.502  0.4653E+01  0.8739E+02
     -0.500  0.4682E+01  0.8740E+02
     -0.498  0.4711E+01  0.8741E+02
     -0.496  0.4739E+01  0.8742E+02
     -0.494  0.4768E+01  0.8743E+02
     -0.492  0.4796E+01  0.8744E+02
     -0.490  0.4825E+01  0.8745E+02
     -0.488  0.4854E+01  0.8746E+02
     -0.486  0.4883E+01  0.8747E+02
     -0.484  0.4911E+01  0.8748E+02
     -0.482  0.4940E+01  0.8749E+02
     -0.480  0.4969E+01  0.8750E+02
     -0.478  0.4998E+01  0.8751E+02
     -0.476  0.5027E+01  0.8752E+02
     -0.474  0.5055E+01  0.8753E+02
     -0.472  0.5084E+01  0.8754E+02
     -0.470  0.5112E+01  0.8755E+02
     -0.468  0.5140E+01  0.8756E+02
     -0.466  0.5168E+01  0.8757E+02
     -0.464  0.5195E+01  0.8758E+02
     -0.462  0.5221E+01  0.8759E+02
     -0.460  0.5246E+01  0.8760E+02
     -0.458  0.5270E+01  0.8761E+02
     -0.456  0.5293E+01  0.8762E+02
     -0.454  0.5316E+01  0.8763E+02
     -0.452  0.5351E+01  0.8764E+02
     -0.450  0.5387E+01  0.8765E+02
     -0.448  0.5422E+01  0.8766E+02
     -0.446  0.5457E+01  0.8767E+02
     -0.444  0.5491E+01  0.8768E+02
     -0.442  0.5524E+01  0.8769E+02
     -0.440  0.5556E+01  0.8771E+02
     -0.438  0.5588E+01  0.8772E+02
     -0.436  0.5620E+01  0.8773E+02
     -0.434  0.5651E+01  0.8774E+02
     -0.432  0.5681E+01  0.8775E+02
     -0.430  0.5709E+01  0.8776E+02
     -0.428  0.5734E+01  0.8777E+02
     -0.426  0.5757E+01  0.8778E+02
     -0.424  0.5777E+01  0.8780E+02
     -0.422  0.5794E+01  0.8781E+02
     -0.420  0.5808E+01  0.8782E+02
     -0.418  0.5818E+01  0.8783E+02
     -0.416  0.5825E+01  0.8784E+02
     -0.414  0.5829E+01  0.8785E+02
     -0.412  0.5830E+01  0.8787E+02
     -0.410  0.5828E+01  0.8788E+02
     -0.408  0.5823E+01  0.8789E+02
     -0.406  0.5815E+01  0.8790E+02
     -0.404  0.5803E+01  0.8791E+02
     -0.402  0.5789E+01  0.8792E+02
     -0.400  0.5771E+01  0.8794E+02
     -0.398  0.5751E+01  0.8795E+02
     -0.396  0.5727E+01  0.8796E+02
     -0.394  0.5701E+01  0.8797E+02
     -0.392  0.5674E+01  0.8798E+02
     -0.390  0.5650E+01  0.8799E+02
     -0.388  0.5627E+01  0.8800E+02
     -0.386  0.5606E+01  0.8802E+02
     -0.384  0.5580E+01  0.8803E+02
     -0.382  0.5537E+01  0.8804E+02
     -0.380  0.5481E+01  0.8805E+02
     -0.378  0.5424E+01  0.8806E+02
     -0.376  0.5371E+01  0.8807E+02
     -0.374  0.5320E+01  0.8808E+02
     -0.372  0.5274E+01  0.8809E+02
     -0.370  0.5230E+01  0.8810E+02
     -0.368  0.5190E+01  0.8811E+02
     -0.366  0.5153E+01  0.8812E+02
     -0.364  0.5119E+01  0.8813E+02
     -0.362  0.5090E+01  0.8814E+02
     -0.360  0.5063E+01  0.8815E+02
     -0.358  0.5041E+01  0.8816E+02
     -0.356  0.5024E+01  0.8817E+02
     -0.354  0.5009E+01  0.8818E+02
     -0.352  0.4998E+01  0.8819E+02
     -0.350  0.4991E+01  0.8820E+02