SrVO3                                   
   1.0000000000000000     
     3.842090    0.000000    0.000000
     0.000000    3.842090    0.000000
     0.000000    0.000000    3.842090
   Sr   V    O 
     1     1     3
Direct
  0.000000  0.000000  0.000000
  0.500000  0.500000  0.500000
  0.500000  0.500000  0.000000
  0.000000  0.500000  0.500000
  0.500000  0.000000  0.500000

   40   40   40
 0.18505671408E+03 0.18495333762E+03 0.18386759503E+03 0.17983360947E+03 0.17063612815E+03
 0.15494236685E+03 0.13311755312E+03 0.10732160447E+03 0.80818878258E+02 0.56841163924E+02
 0.37570725629E+02 0.23695455588E+02 0.14619202700E+02 0.90694391485E+01 0.58366247696E+01
 0.40378844092E+01 0.30675408086E+01 0.25567022603E+01 0.22976402490E+01 0.21788006951E+01
 0.21448449364E+01 0.21788006215E+01 0.22976400727E+01 0.25567019620E+01 0.30675404229E+01
 0.40378840307E+01 0.58366245031E+01 0.90694390288E+01 0.14619202644E+02 0.23695455430E+02
 0.37570725268E+02 0.56841163550E+02 0.80818878501E+02 0.10732160633E+03 0.13311755760E+03
 0.15494237439E+03 0.17063613818E+03 0.17983362032E+03 0.18386760429E+03 0.18495334297E+03
 0.18495333708E+03 0.18471612556E+03 0.18326740747E+03 0.17874496838E+03 0.16907136636E+03
 0.15304350228E+03 0.13110839160E+03 0.10543736816E+03 0.79239895634E+02 0.55654686732E+02
 0.36770666349E+02 0.23211690724E+02 0.14356963872E+02 0.89427689341E+01 0.57872311999E+01
 0.40262717202E+01 0.30687517423E+01 0.25565588260E+01 0.22901227169E+01 0.21641101346E+01
 0.21272792239E+01 0.21641081348E+01 0.22901196419E+01 0.25565560051E+01 0.30687503347E+01
 0.40262725360E+01 0.57872350434E+01 0.89427774156E+01 0.14356980648E+02 0.23211722372E+02
 0.36770722833E+02 0.55654782536E+02 0.79240049553E+02 0.10543759931E+03 0.13110871051E+03
 0.15304389966E+03 0.16907180600E+03 0.17874539018E+03 0.18326774123E+03 0.18471631009E+03
 0.18386759469E+03 0.18326740757E+03 0.18083757412E+03 0.17500662864E+03 0.16408233820E+03
 0.14722093168E+03 0.12509015651E+03 0.99881333112E+02 0.74637753444E+02 0.52228593066E+02
 0.34478565474E+02 0.21835236957E+02 0.13615534625E+02 0.85903241585E+01 0.56613447036E+01
 0.40207280379E+01 0.31198782716E+01 0.26292654368E+01 0.23674033070E+01 0.22400668699E+01
 0.22021378240E+01 0.22400643216E+01 0.23673995412E+01 0.26292623599E+01 0.31198775642E+01
 0.40207309611E+01 0.56613526746E+01 0.85903400635E+01 0.13615564951E+02 0.21835293609E+02
 0.34478666405E+02 0.52228764153E+02 0.74638028061E+02 0.99881745092E+02 0.12509072446E+03
 0.14722163920E+03 0.16408312121E+03 0.17500738038E+03 0.18083816941E+03 0.18326773689E+03
 0.17983360982E+03 0.17874496896E+03 0.17500662902E+03 0.16746911654E+03 0.15499448018E+03
 0.13724542836E+03 0.11518198939E+03 0.90986981232E+02 0.67425667868E+02 0.46951406642E+02
 0.30999456171E+02 0.19772373039E+02 0.12516916637E+02 0.80832419581E+01 0.55061620373E+01
 0.40670570178E+01 0.32830039826E+01 0.28639564555E+01 0.26477605894E+01 0.25471429263E+01
 0.25181663524E+01 0.25471422979E+01 0.26477601388E+01 0.28639573187E+01 0.32830072344E+01
 0.40670637897E+01 0.55061741643E+01 0.80832632506E+01 0.12516955210E+02 0.19772444024E+02
 0.30999582320E+02 0.46951620386E+02 0.67426010853E+02 0.90987495690E+02 0.11518269884E+03
 0.13724631308E+03 0.15499546101E+03 0.16747006024E+03 0.17500737790E+03 0.17874538390E+03
 0.17063612917E+03 0.16907136737E+03 0.16408233884E+03 0.15499448038E+03 0.14128291726E+03
 0.12314873392E+03 0.10182495394E+03 0.79413472755E+02 0.58299426694E+02 0.40425561550E+02
 0.26780801392E+02 0.17313493457E+02 0.11228179227E+02 0.75171077494E+01 0.53724436247E+01
 0.41866894031E+01 0.35558657404E+01 0.32355682002E+01 0.30848200594E+01 0.30231687891E+01
 0.30073083040E+01 0.30231711960E+01 0.30848246531E+01 0.32355746228E+01 0.35558738352E+01
 0.41866997859E+01 0.53724583203E+01 0.75171311181E+01 0.11228219936E+02 0.17313567654E+02
 0.26780933453E+02 0.40425785184E+02 0.58299784413E+02 0.79414007283E+02 0.10182568902E+03
 0.12314964970E+03 0.14128393332E+03 0.15499546000E+03 0.16408311813E+03 0.16907180000E+03
 0.15494236812E+03 0.15304350329E+03 0.14722093218E+03 0.13724542838E+03 0.12314873374E+03
 0.10558499530E+03 0.85955433728E+02 0.66178595588E+02 0.48185900223E+02 0.33382609323E+02
 0.22330840083E+02 0.14773352938E+02 0.99354674202E+01 0.70070646023E+01 0.53353301569E+01
 0.44307719413E+01 0.39697854206E+01 0.37546222342E+01 0.36683868701E+01 0.36420972221E+01
 0.36375334103E+01 0.36421001025E+01 0.36683920087E+01 0.37546287515E+01 0.39697928103E+01
 0.44307807346E+01 0.53353424621E+01 0.70070848045E+01 0.99355037697E+01 0.14773420542E+02
 0.22330962398E+02 0.33382817171E+02 0.48186230703E+02 0.66179084779E+02 0.85956100828E+02
 0.10558582205E+03 0.12314964945E+03 0.13724631208E+03 0.14722163676E+03 0.15304389526E+03
 0.13311755400E+03 0.13110839207E+03 0.12509015643E+03 0.11518198886E+03 0.10182495326E+03
 0.85955433258E+02 0.68987156266E+02 0.52553558098E+02 0.38106428249E+02 0.26557531471E+02
 0.18126139174E+02 0.12436324498E+02 0.88263615132E+01 0.66919583579E+01 0.55242006303E+01
 0.49456380333E+01 0.47041425975E+01 0.46405422421E+01 0.46558742147E+01 0.46885882546E+01
 0.47034138596E+01 0.46885876109E+01 0.46558729474E+01 0.46405405422E+01 0.47041410481E+01
 0.49456378534E+01 0.55242040338E+01 0.66919692920E+01 0.88263871308E+01 0.12436377553E+02
 0.18126240192E+02 0.26557706338E+02 0.38106705364E+02 0.52553962914E+02 0.68987700508E+02
 0.85956100773E+02 0.10182568881E+03 0.11518269819E+03 0.12509072298E+03 0.13110870792E+03
 0.10732160454E+03 0.10543736776E+03 0.99881332210E+02 0.90986979986E+02 0.79413471455E+02
 0.66178594550E+02 0.52553557546E+02 0.39819828718E+02 0.28980046499E+02 0.20551905701E+02
 0.14530896797E+02 0.10529341120E+02 0.80753947890E+01 0.67263854772E+01 0.61055152177E+01
 0.59307496856E+01 0.60044909201E+01 0.61901252741E+01 0.63913429572E+01 0.65403234379E+01
 0.65948442753E+01 0.65403186952E+01 0.63913341822E+01 0.61901137580E+01 0.60044783075E+01
 0.59307378245E+01 0.61055063782E+01 0.67263831404E+01 0.80754050072E+01 0.10529374246E+02
 0.14530969042E+02 0.20552037739E+02 0.28980258240E+02 0.39820135121E+02 0.52553962827E+02
 0.66179084639E+02 0.79414007068E+02 0.90987495271E+02 0.99881744272E+02 0.10543759796E+03
 0.80818877436E+02 0.79239894373E+02 0.74637751793E+02 0.67425666008E+02 0.58299424886E+02
 0.48185898729E+02 0.38106427246E+02 0.28980046035E+02 0.21438910469E+02 0.15731944199E+02
 0.11752658408E+02 0.92230436320E+01 0.78301651711E+01 0.72585244939E+01 0.72379876589E+01
 0.75559211081E+01 0.80479693133E+01 0.85833560665E+01 0.90545875414E+01 0.93759364194E+01
 0.94898880710E+01 0.93759310180E+01 0.90545770981E+01 0.85833413291E+01 0.80479514150E+01
 0.75559015725E+01 0.72379686008E+01 0.72585091856E+01 0.78301589748E+01 0.92230550441E+01
 0.11752699655E+02 0.15732030536E+02 0.21439055837E+02 0.28980258136E+02 0.38106705153E+02
 0.48186230408E+02 0.58299784046E+02 0.67426010380E+02 0.74638027407E+02 0.79240048670E+02
 0.56841162501E+02 0.55654684938E+02 0.52228590998E+02 0.46951404479E+02 0.40425559515E+02
 0.33382607618E+02 0.26557530229E+02 0.20551904950E+02 0.15731943876E+02 0.12198752866E+02
 0.98779857129E+01 0.86145777574E+01 0.81984531642E+01 0.84140189363E+01 0.90665077265E+01
 0.99869044952E+01 0.11024621847E+02 0.12037717569E+02 0.12889825009E+02 0.13459485816E+02
 0.13659961004E+02 0.13459483163E+02 0.12889818746E+02 0.12037706465E+02 0.11024605295E+02
 0.99868830678E+01 0.90664832924E+01 0.84139946452E+01 0.81984337374E+01 0.86145700840E+01
 0.98779990844E+01 0.12198797990E+02 0.15732030465E+02 0.20552037563E+02 0.26557706035E+02
 0.33382816740E+02 0.40425784635E+02 0.46951619721E+02 0.52228763360E+02 0.55654781604E+02
 0.37570724052E+02 0.36770664476E+02 0.34478563413E+02 0.30999454081E+02 0.26780799450E+02
 0.22330838441E+02 0.18126137922E+02 0.14530895946E+02 0.11752657904E+02 0.98779854848E+01
 0.88994887700E+01 0.87308141490E+01 0.92446739495E+01 0.10302423205E+02 0.11768554268E+02
 0.13507729396E+02 0.15368324750E+02 0.17165742623E+02 0.18683865193E+02 0.19705852552E+02
 0.20067114181E+02 0.19705855447E+02 0.18683867672E+02 0.17165740168E+02 0.15368314277E+02
 0.13507710628E+02 0.11768529309E+02 0.10302395326E+02 0.92446470585E+01 0.87307933715E+01
 0.88994810994E+01 0.98779990322E+01 0.11752699552E+02 0.14530968861E+02 0.18126239891E+02
 0.22330961947E+02 0.26780932842E+02 0.30999581548E+02 0.34478665478E+02 0.36770721754E+02
 0.23695454263E+02 0.23211689168E+02 0.21835235259E+02 0.19772371324E+02 0.17313491862E+02
 0.14773351571E+02 0.12436323412E+02 0.10529340305E+02 0.92230430423E+01 0.86145773549E+01
 0.87308139327E+01 0.95454081052E+01 0.11004088805E+02 0.13047741388E+02 0.15616531172E+02
 0.18622315032E+02 0.21896293218E+02 0.25144759999E+02 0.27956179703E+02 0.29881930346E+02
 0.30568698047E+02 0.29881949795E+02 0.27956208445E+02 0.25144784185E+02 0.21896303126E+02
 0.18622308681E+02 0.15616512392E+02 0.13047715547E+02 0.11004060294E+02 0.95453809007E+01
 0.87307932947E+01 0.86145699764E+01 0.92230549321E+01 0.10529374114E+02 0.12436377352E+02
 0.14773420215E+02 0.17313567165E+02 0.19772443357E+02 0.21835292766E+02 0.23211721361E+02
 0.14619201881E+02 0.14356962868E+02 0.13615533483E+02 0.12516915453E+02 0.11228178111E+02
 0.99354664461E+01 0.88263606932E+01 0.80753940834E+01 0.78301645343E+01 0.81984525941E+01
 0.92446735020E+01 0.11004088558E+02 0.13513086365E+02 0.16834380014E+02 0.21039776827E+02
 0.26124026677E+02 0.31871551973E+02 0.37755380444E+02 0.42961608430E+02 0.46576046239E+02
 0.47873090437E+02 0.46576119189E+02 0.42961722436E+02 0.37755491941E+02 0.31871629751E+02
 0.26124062589E+02 0.21039779916E+02 0.16834363926E+02 0.13513061169E+02 0.11004060186E+02
 0.92446468717E+01 0.81984335470E+01 0.78301588454E+01 0.80754049464E+01 0.88263870870E+01
 0.99355036667E+01 0.11228219713E+02 0.12516954846E+02 0.13615564448E+02 0.14356980015E+02
 0.90694389585E+01 0.89427685716E+01 0.85903236135E+01 0.80832413146E+01 0.75171071249E+01
 0.70070640547E+01 0.66919578455E+01 0.67263849022E+01 0.72585237953E+01 0.84140181611E+01
 0.10302422495E+02 0.13047740885E+02 0.16834379770E+02 0.21935793163E+02 0.28655768415E+02
 0.37126143363E+02 0.47016745967E+02 0.57344232888E+02 0.66582187502E+02 0.73094924860E+02
 0.75461481240E+02 0.73095140656E+02 0.66582526139E+02 0.57344574266E+02 0.47017003123E+02
 0.37126291268E+02 0.28655828888E+02 0.21935801792E+02 0.16834363844E+02 0.13047715326E+02
 0.10302394988E+02 0.84139943123E+01 0.72585089949E+01 0.67263831430E+01 0.66919694298E+01
 0.70070849668E+01 0.75171312225E+01 0.80832632871E+01 0.85903400693E+01 0.89427774061E+01
 0.58366252915E+01 0.57872315112E+01 0.56613447140E+01 0.55061618532E+01 0.53724434306E+01
 0.53353300250E+01 0.55242004429E+01 0.61055147686E+01 0.72379868440E+01 0.90665066674E+01
 0.11768553250E+02 0.15616530425E+02 0.21039776366E+02 0.28655768140E+02 0.39138933352E+02
 0.52800402718E+02 0.69055273608E+02 0.86649711791E+02 0.10319986360E+03 0.11520575440E+03
 0.11960862814E+03 0.11520635605E+03 0.10320077261E+03 0.86650577566E+02 0.69055910023E+02
 0.52800786732E+02 0.39139115184E+02 0.28655828819E+02 0.21039779794E+02 0.15616512064E+02
 0.11768528752E+02 0.90664827128E+01 0.72379682705E+01 0.61055064243E+01 0.55242043733E+01
 0.53353429092E+01 0.53724587542E+01 0.55061746168E+01 0.56613532605E+01 0.57872357976E+01
 0.40378857521E+01 0.40262727521E+01 0.40207285543E+01 0.40670571888E+01 0.41866895579E+01
 0.44307722091E+01 0.49456381933E+01 0.59307493552E+01 0.75559201016E+01 0.99869030460E+01
 0.13507728016E+02 0.18622314080E+02 0.26124026047E+02 0.37126142697E+02 0.52800402026E+02
 0.73679999919E+02 0.99944460961E+02 0.12967213917E+03 0.15774190194E+03 0.17787622285E+03
 0.18518997400E+03 0.17787766263E+03 0.15774407176E+03 0.12967416061E+03 0.99945852439E+02
 0.73680783916E+02 0.52800786313E+02 0.37126291032E+02 0.26124062456E+02 0.18622308244E+02
 0.13507709753E+02 0.99868820940E+01 0.75559010008E+01 0.59307379011E+01 0.49456384351E+01
 0.44307814925E+01 0.41867005273E+01 0.40670646179E+01 0.40207321274E+01 0.40262741155E+01
 0.30675430945E+01 0.30687535640E+01 0.31198792719E+01 0.32830044299E+01 0.35558661824E+01
 0.39697860876E+01 0.47041431403E+01 0.60044907123E+01 0.80479680484E+01 0.11024619911E+02
 0.15368322975E+02 0.21896292141E+02 0.31871551282E+02 0.47016744837E+02 0.69055271761E+02
 0.99944459521E+02 0.14035910253E+03 0.18562330344E+03 0.22704491112E+03 0.25580289057E+03
 0.26603883998E+03 0.25580553895E+03 0.22704895109E+03 0.18562711935E+03 0.14036171983E+03
 0.99945851344E+02 0.69055908727E+02 0.47017002604E+02 0.31871629642E+02 0.21896302576E+02
 0.15368312973E+02 0.11024603771E+02 0.80479505027E+01 0.60044784143E+01 0.47041419270E+01
 0.39697939094E+01 0.35558748482E+01 0.32830083641E+01 0.31198792600E+01 0.30687527411E+01
 0.25567055477E+01 0.25565614792E+01 0.26292669171E+01 0.28639571430E+01 0.32355689013E+01
 0.37546233078E+01 0.46405431982E+01 0.61901252022E+01 0.85833545159E+01 0.12037715107E+02
 0.17165740476E+02 0.25144758928E+02 0.37755379892E+02 0.57344231436E+02 0.86649708943E+02
 0.12967213709E+03 0.18562330378E+03 0.24603973858E+03 0.29868737063E+03 0.33354659360E+03
 0.34558617631E+03 0.33355026714E+03 0.29869304202E+03 0.24604519683E+03 0.18562712007E+03
 0.12967415917E+03 0.86650575438E+02 0.57344573467E+02 0.37755491921E+02 0.25144783537E+02
 0.17165738369E+02 0.12037704293E+02 0.85833400149E+01 0.61901138982E+01 0.46405417502E+01
 0.37546301931E+01 0.32355758469E+01 0.28639586471E+01 0.26292644882E+01 0.25565591775E+01
 0.22976444512E+01 0.22901261480E+01 0.23674052454E+01 0.26477615102E+01 0.30848210109E+01
 0.36683883366E+01 0.46558755754E+01 0.63913430303E+01 0.90545857388E+01 0.12889822082E+02
 0.18683862763E+02 0.27956178777E+02 0.42961608244E+02 0.66582186073E+02 0.10319986077E+03
 0.15774190146E+03 0.22704491566E+03 0.29868737673E+03 0.35771479451E+03 0.39458971065E+03
 0.40682761361E+03 0.39459344106E+03 0.35772060331E+03 0.29869304851E+03 0.22704895628E+03
 0.15774407200E+03 0.10320077042E+03 0.66582525179E+02 0.42961722553E+02 0.27956207717E+02
 0.18683865387E+02 0.12889815933E+02 0.90545753860E+01 0.63913343447E+01 0.46558744495E+01
 0.36683937275E+01 0.30848259917E+01 0.26477615413E+01 0.23674019583E+01 0.22901234362E+01
 0.21788055489E+01 0.21641141563E+01 0.22400691916E+01 0.25471440740E+01 0.30231699745E+01
 0.36420990167E+01 0.46885899439E+01 0.65403236457E+01 0.93759344615E+01 0.13459482586E+02
 0.19705849978E+02 0.29881929641E+02 0.46576046513E+02 0.73094923798E+02 0.11520575250E+03
 0.17787622536E+03 0.25580290122E+03 0.33354660854E+03 0.39458972078E+03 0.43067895644E+03
 0.44216869447E+03 0.43068134048E+03 0.39459345158E+03 0.33355028270E+03 0.25580555024E+03
 0.17787766564E+03 0.11520635440E+03 0.73095139626E+02 0.46576119369E+02 0.29881948966E+02
 0.19705852766E+02 0.13459479845E+02 0.93759289834E+01 0.65403188444E+01 0.46885892884E+01
 0.36421019621E+01 0.30231725295E+01 0.25471436486E+01 0.22400668484E+01 0.21641123105E+01
 0.21448500466E+01 0.21272835330E+01 0.22021403909E+01 0.25181676955E+01 0.30073096754E+01
 0.36375354063E+01 0.47034157328E+01 0.65948445834E+01 0.94898861012E+01 0.13659957711E+02
 0.20067111622E+02 0.30568697531E+02 0.47873091046E+02 0.75461480572E+02 0.11960862702E+03
 0.18518997830E+03 0.26603885388E+03 0.34558619591E+03 0.40682762926E+03 0.44216870027E+03
 0.45320186285E+03 0.44216870069E+03 0.40682762992E+03 0.34558619655E+03 0.26603885424E+03
 0.18518997826E+03 0.11960862662E+03 0.75461479984E+02 0.47873090450E+02 0.30568697034E+02
 0.20067111240E+02 0.13659957409E+02 0.94898858436E+01 0.65948443571E+01 0.47034155370E+01
 0.36375352376E+01 0.30073095239E+01 0.25181675555E+01 0.22021402733E+01 0.21272834633E+01
 0.21788055588E+01 0.21641123792E+01 0.22400669515E+01 0.25471437694E+01 0.30231726697E+01
 0.36421021312E+01 0.46885894854E+01 0.65403190544E+01 0.93759291954E+01 0.13459480075E+02
 0.19705853058E+02 0.29881949363E+02 0.46576119863E+02 0.73095140141E+02 0.11520635485E+03
 0.17787766600E+03 0.25580555066E+03 0.33355028344E+03 0.39459345290E+03 0.43068134248E+03
 0.44216869700E+03 0.43067895916E+03 0.39458972324E+03 0.33354661035E+03 0.25580290217E+03
 0.17787622550E+03 0.11520575207E+03 0.73094923113E+02 0.46576045816E+02 0.29881929052E+02
 0.19705849509E+02 0.13459482209E+02 0.93759341548E+01 0.65403234014E+01 0.46885897525E+01
 0.36420988582E+01 0.30231698280E+01 0.25471439350E+01 0.22400690784E+01 0.21641140972E+01
 0.22976444728E+01 0.22901235007E+01 0.23674020440E+01 0.26477616433E+01 0.30848261236E+01
 0.36683939007E+01 0.46558746518E+01 0.63913345436E+01 0.90545755577E+01 0.12889816092E+02
 0.18683865584E+02 0.27956208004E+02 0.42961722938E+02 0.66582525633E+02 0.10320077094E+03
 0.15774407270E+03 0.22704895742E+03 0.29869305041E+03 0.35772060620E+03 0.39459344486E+03
 0.40682761795E+03 0.39458971491E+03 0.35771479806E+03 0.29868737915E+03 0.22704491683E+03
 0.15774190158E+03 0.10319986023E+03 0.66582185271E+02 0.42961607453E+02 0.27956178107E+02
 0.18683862216E+02 0.12889821637E+02 0.90545853892E+01 0.63913427746E+01 0.46558753978E+01
 0.36683882036E+01 0.30848208911E+01 0.26477613962E+01 0.23674051568E+01 0.22901261107E+01
 0.25567055820E+01 0.25565592436E+01 0.26292645700E+01 0.28639587482E+01 0.32355759862E+01
 0.37546303787E+01 0.46405419594E+01 0.61901140853E+01 0.85833401468E+01 0.12037704380E+02
 0.17165738466E+02 0.25144783704E+02 0.37755492188E+02 0.57344573846E+02 0.86650575985E+02
 0.12967416006E+03 0.18562712162E+03 0.24604519934E+03 0.29869304565E+03 0.33355027169E+03
 0.34558618128E+03 0.33354659826E+03 0.29868737433E+03 0.24603974093E+03 0.18562330476E+03
 0.12967213700E+03 0.86649708238E+02 0.57344230528E+02 0.37755379032E+02 0.25144758200E+02
 0.17165739875E+02 0.12037714617E+02 0.85833541406E+01 0.61901249443E+01 0.46405430374E+01
 0.37546232017E+01 0.32355688117E+01 0.28639570597E+01 0.26292668575E+01 0.25565614650E+01
 0.30675431421E+01 0.30687528183E+01 0.31198793546E+01 0.32830084817E+01 0.35558750048E+01
 0.39697941062E+01 0.47041421336E+01 0.60044785803E+01 0.80479505917E+01 0.11024603791E+02
 0.15368312975E+02 0.21896302624E+02 0.31871629782E+02 0.47017002878E+02 0.69055909220E+02
 0.99945852241E+02 0.14036172139E+03 0.18562712183E+03 0.22704895456E+03 0.25580554316E+03
 0.26603884443E+03 0.25580289459E+03 0.22704491414E+03 0.18562330518E+03 0.14035910305E+03
 0.99944459143E+02 0.69055270912E+02 0.47016743873E+02 0.31871550400E+02 0.21896291397E+02
 0.15368322358E+02 0.11024619409E+02 0.80479676687E+01 0.60044904555E+01 0.47041429831E+01
 0.39697859869E+01 0.35558661021E+01 0.32830043611E+01 0.31198792300E+01 0.30687535667E+01
 0.40378858156E+01 0.40262742105E+01 0.40207322424E+01 0.40670647551E+01 0.41867006951E+01
 0.44307816854E+01 0.49456386217E+01 0.59307380345E+01 0.75559010478E+01 0.99868820591E+01
 0.13507709679E+02 0.18622308190E+02 0.26124062474E+02 0.37126291175E+02 0.52800786667E+02
 0.73680784628E+02 0.99945853699E+02 0.12967416257E+03 0.15774407442E+03 0.17787766577E+03
 0.18518997719E+03 0.17787622560E+03 0.15774190386E+03 0.12967214008E+03 0.99944460964E+02
 0.73679999296E+02 0.52800401112E+02 0.37126141754E+02 0.26124025208E+02 0.18622313375E+02
 0.13507727432E+02 0.99869025706E+01 0.75559197361E+01 0.59307490957E+01 0.49456380181E+01
 0.44307720849E+01 0.41866894604E+01 0.40670571159E+01 0.40207285200E+01 0.40262727685E+01
 0.58366253673E+01 0.57872359049E+01 0.56613533865E+01 0.55061747592E+01 0.53724589145E+01
 0.53353430785E+01 0.55242045250E+01 0.61055065213E+01 0.72379682858E+01 0.90664826466E+01
 0.11768528634E+02 0.15616511940E+02 0.21039779712E+02 0.28655828829E+02 0.39139115356E+02
 0.52800787163E+02 0.69055910821E+02 0.86650578798E+02 0.10320077424E+03 0.11520635791E+03
 0.11960862994E+03 0.11520575583E+03 0.10319986444E+03 0.86649711968E+02 0.69055273222E+02
 0.52800401974E+02 0.39138932476E+02 0.28655767297E+02 0.21039775634E+02 0.15616529814E+02
 0.11768552742E+02 0.90665062486E+01 0.72379865069E+01 0.61055145055E+01 0.55242002397E+01
 0.53353298654E+01 0.53724433070E+01 0.55061617710E+01 0.56613446844E+01 0.57872315388E+01
 0.90694390077E+01 0.89427774883E+01 0.85903401728E+01 0.80832634057E+01 0.75171313519E+01
 0.70070850967E+01 0.66919695399E+01 0.67263832071E+01 0.72585089924E+01 0.84139942385E+01
 0.10302394858E+02 0.13047715169E+02 0.16834363696E+02 0.21935801697E+02 0.28655828895E+02
 0.37126291432E+02 0.47017003492E+02 0.57344574855E+02 0.66582526900E+02 0.73095141475E+02
 0.75461481955E+02 0.73094925315E+02 0.66582187595E+02 0.57344232610E+02 0.47016745398E+02
 0.37126142636E+02 0.28655767663E+02 0.21935792476E+02 0.16834379187E+02 0.13047740402E+02
 0.10302422092E+02 0.84140178176E+01 0.72585234990E+01 0.67263846453E+01 0.66919576227E+01
 0.70070638641E+01 0.75171069706E+01 0.80832412063E+01 0.85903235598E+01 0.89427685737E+01
 0.14619201796E+02 0.14356979987E+02 0.13615564468E+02 0.12516954900E+02 0.11228219788E+02
 0.99355037452E+01 0.88263871514E+01 0.80754049784E+01 0.78301588297E+01 0.81984334759E+01
 0.92446467484E+01 0.11004060025E+02 0.13513060997E+02 0.16834363774E+02 0.21039779820E+02
 0.26124062579E+02 0.31871629842E+02 0.37755492125E+02 0.42961722669E+02 0.46576119403E+02
 0.47873090549E+02 0.46576046181E+02 0.42961608170E+02 0.37755379998E+02 0.31871551402E+02
 0.26124026061E+02 0.21039776241E+02 0.16834379504E+02 0.13513085943E+02 0.11004088212E+02
 0.92446732081E+01 0.81984523310E+01 0.78301642863E+01 0.80753938401E+01 0.88263604483E+01
 0.99354661984E+01 0.11228177866E+02 0.12516915226E+02 0.13615533290E+02 0.14356962725E+02
 0.23695453865E+02 0.23211721096E+02 0.21835292624E+02 0.19772443307E+02 0.17313567166E+02
 0.14773420234E+02 0.12436377363E+02 0.10529374103E+02 0.92230548905E+01 0.86145698979E+01
 0.87307931781E+01 0.95453807526E+01 0.11004060131E+02 0.13047715392E+02 0.15616512268E+02
 0.18622308607E+02 0.21896303105E+02 0.25144784202E+02 0.27956208467E+02 0.29881949778E+02
 0.30568697946E+02 0.29881930130E+02 0.27956179367E+02 0.25144759568E+02 0.21896292739E+02
 0.18622314559E+02 0.15616530749E+02 0.13047741037E+02 0.11004088524E+02 0.95454078765E+01
 0.87308137335E+01 0.86145771609E+01 0.92230428282E+01 0.10529340043E+02 0.12436323076E+02
 0.14773351144E+02 0.17313491349E+02 0.19772370755E+02 0.21835234689E+02 0.23211688660E+02
 0.37570723202E+02 0.36770721171E+02 0.34478665134E+02 0.30999581377E+02 0.26780932766E+02
 0.22330961905E+02 0.18126239844E+02 0.14530968792E+02 0.11752699462E+02 0.98779989229E+01
 0.88994809754E+01 0.87307932387E+01 0.92446469265E+01 0.10302395208E+02 0.11768529216E+02
 0.13507710570E+02 0.15368314253E+02 0.17165740165E+02 0.18683867664E+02 0.19705855401E+02
 0.20067114064E+02 0.19705852344E+02 0.18683864898E+02 0.17165742269E+02 0.15368324378E+02
 0.13507729050E+02 0.11768553975E+02 0.10302422972E+02 0.92446737698E+01 0.87308140047E+01
 0.88994886362E+01 0.98779853247E+01 0.11752657663E+02 0.14530895557E+02 0.18126137319E+02
 0.22330837588E+02 0.26780798369E+02 0.30999452863E+02 0.34478562193E+02 0.36770663392E+02
 0.56841161357E+02 0.55654780881E+02 0.52228762967E+02 0.46951619537E+02 0.40425784548E+02
 0.33382816672E+02 0.26557705945E+02 0.20552037438E+02 0.15732030313E+02 0.12198797831E+02
 0.98779989371E+01 0.86145699613E+01 0.81984336451E+01 0.84139945835E+01 0.90664832595E+01
 0.99868830619E+01 0.11024605312E+02 0.12037706497E+02 0.12889818769E+02 0.13459483147E+02
 0.13659960919E+02 0.13459485647E+02 0.12889824766E+02 0.12037717283E+02 0.11024621559E+02
 0.99869042386E+01 0.90665075170E+01 0.84140187750E+01 0.81984530432E+01 0.86145776603E+01
 0.98779856038E+01 0.12198752674E+02 0.15731943494E+02 0.20551904248E+02 0.26557529105E+02
 0.33382606059E+02 0.40425557624E+02 0.46951402465E+02 0.52228589104E+02 0.55654683367E+02
 0.80818876715E+02 0.79240048432E+02 0.74638027443E+02 0.67426010507E+02 0.58299784147E+02
 0.48186230427E+02 0.38106705081E+02 0.28980257986E+02 0.21439055639E+02 0.15732030328E+02
 0.11752699478E+02 0.92230549239E+01 0.78301589181E+01 0.72585091805E+01 0.72379686296E+01
 0.75559016224E+01 0.80479514796E+01 0.85833414003E+01 0.90545771566E+01 0.93759310333E+01
 0.94898880139E+01 0.93759362789E+01 0.90545873335E+01 0.85833558266E+01 0.80479690781E+01
 0.75559209010E+01 0.72379874881E+01 0.72585243602E+01 0.78301650719E+01 0.92230435471E+01
 0.11752658273E+02 0.15731943885E+02 0.21438909795E+02 0.28980044823E+02 0.38106425420E+02
 0.48185896390E+02 0.58299422309E+02 0.67425663560E+02 0.74637749803E+02 0.79239893021E+02
 0.10732160553E+03 0.10543759926E+03 0.99881745503E+02 0.90987496207E+02 0.79414007649E+02
 0.66179084910E+02 0.52553962868E+02 0.39820135005E+02 0.28980258030E+02 0.20552037500E+02
 0.14530968838E+02 0.10529374121E+02 0.80754049730E+01 0.67263831780E+01 0.61055064576E+01
 0.59307379238E+01 0.60044784174E+01 0.61901138712E+01 0.63913342798E+01 0.65403187457E+01
 0.65948442494E+01 0.65403233273E+01 0.63913427809E+01 0.61901250664E+01 0.60044907113E+01
 0.59307494917E+01 0.61055150466E+01 0.67263853381E+01 0.80753946851E+01 0.10529341016E+02
 0.14530896580E+02 0.20551905169E+02 0.28980045413E+02 0.39819826925E+02 0.52553555115E+02
 0.66178591816E+02 0.79413468937E+02 0.90986978194E+02 0.99881331450E+02 0.10543736802E+03
 0.13311755817E+03 0.13110871186E+03 0.12509072614E+03 0.11518270036E+03 0.10182569008E+03
 0.85956101387E+02 0.68987700707E+02 0.52553962867E+02 0.38106705178E+02 0.26557706095E+02
 0.18126239972E+02 0.12436377418E+02 0.88263871024E+01 0.66919693534E+01 0.55242041507E+01
 0.49456379984E+01 0.47041412080E+01 0.46405407071E+01 0.46558730961E+01 0.46885877098E+01
 0.47034138788E+01 0.46885881854E+01 0.46558740732E+01 0.46405420559E+01 0.47041423896E+01
 0.49456378196E+01 0.55242004293E+01 0.66919581934E+01 0.88263613888E+01 0.12436324348E+02
 0.18126138825E+02 0.26557530660E+02 0.38106426751E+02 0.52553555905E+02 0.68987153726E+02
 0.85955431039E+02 0.10182495213E+03 0.11518198938E+03 0.12509015870E+03 0.13110839567E+03
 0.15494237636E+03 0.15304390235E+03 0.14722164201E+03 0.13724631541E+03 0.12314965124E+03
 0.10558582283E+03 0.85956101065E+02 0.66179084749E+02 0.48186230539E+02 0.33382816947E+02
 0.22330962181E+02 0.14773420396E+02 0.99355037329E+01 0.70070848724E+01 0.53353426065E+01
 0.44307809255E+01 0.39697930260E+01 0.37546289730E+01 0.36683922094E+01 0.36421002486E+01
 0.36375334735E+01 0.36420971919E+01 0.36683867546E+01 0.37546220501E+01 0.39697851862E+01
 0.44307716814E+01 0.53353299100E+01 0.70070644070E+01 0.99354672692E+01 0.14773352724E+02
 0.22330839577E+02 0.33382608253E+02 0.48185898479E+02 0.66178593434E+02 0.85955431887E+02
 0.10558499479E+03 0.12314873550E+03 0.13724543285E+03 0.14722093902E+03 0.15304351151E+03
 0.17063614108E+03 0.16907180953E+03 0.16408312461E+03 0.15499546363E+03 0.14128393488E+03
 0.12314965008E+03 0.10182568893E+03 0.79414007095E+02 0.58299784224E+02 0.40425784991E+02
 0.26780933264E+02 0.17313567510E+02 0.11228219886E+02 0.75171311820E+01 0.53724584859E+01
 0.41867000216E+01 0.35558741041E+01 0.32355748895E+01 0.30848248838E+01 0.30231713616E+01
 0.30073083837E+01 0.30231687730E+01 0.30848199455E+01 0.32355679929E+01 0.35558654569E+01
 0.41866890844E+01 0.53724433327E+01 0.75171075318E+01 0.11228179055E+02 0.17313493179E+02
 0.26780800749E+02 0.40425560334E+02 0.58299425002E+02 0.79413471196E+02 0.10182495361E+03
 0.12314873611E+03 0.14128292290E+03 0.15499448958E+03 0.16408235068E+03 0.16907138020E+03
 0.17983362334E+03 0.17874539373E+03 0.17500738363E+03 0.16747006250E+03 0.15499546106E+03
 0.13724631220E+03 0.11518269792E+03 0.90987495102E+02 0.67426010572E+02 0.46951620243E+02
 0.30999582196E+02 0.19772443907E+02 0.12516955156E+02 0.80832633099E+01 0.55061743487E+01
 0.40670640662E+01 0.32830075456E+01 0.28639576078E+01 0.26477603665E+01 0.25471424456E+01
 0.25181664138E+01 0.25471428950E+01 0.26477604539E+01 0.28639562087E+01 0.32830036438E+01
 0.40670566470E+01 0.55061617174E+01 0.80832417377E+01 0.12516916460E+02 0.19772372719E+02
 0.30999455460E+02 0.46951405452E+02 0.67425666545E+02 0.90986980706E+02 0.11518199104E+03
 0.13724543353E+03 0.15499448959E+03 0.16746912982E+03 0.17500664464E+03 0.17874498466E+03
 0.18386760660E+03 0.18326774402E+03 0.18083817183E+03 0.17500737930E+03 0.16408311837E+03
 0.14722163620E+03 0.12509072226E+03 0.99881743933E+02 0.74638027667E+02 0.52228764104E+02
 0.34478666399E+02 0.21835293556E+02 0.13615564912E+02 0.85903401274E+01 0.56613528798E+01
 0.40207312740E+01 0.31198779059E+01 0.26292626534E+01 0.23673997450E+01 0.22400644321E+01
 0.22021378518E+01 0.22400668131E+01 0.23674031454E+01 0.26292651546E+01 0.31198778921E+01
 0.40207276382E+01 0.56613443816E+01 0.85903239582E+01 0.13615534468E+02 0.21835236642E+02
 0.34478564796E+02 0.52228592073E+02 0.74637752691E+02 0.99881333734E+02 0.12509015996E+03
 0.14722093915E+03 0.16408235003E+03 0.17500664392E+03 0.18083759078E+03 0.18326742301E+03
 0.18495334408E+03 0.18471631169E+03 0.18326773819E+03 0.17874538430E+03 0.16907179944E+03
 0.15304389417E+03 0.13110870695E+03 0.10543759763E+03 0.79240049135E+02 0.55654782654E+02
 0.36770722995E+02 0.23211722417E+02 0.14356980648E+02 0.89427774997E+01 0.57872352759E+01
 0.40262728831E+01 0.30687507005E+01 0.25565562991E+01 0.22901198247E+01 0.21641082169E+01
 0.21272792291E+01 0.21641100634E+01 0.22901225423E+01 0.25565585272E+01 0.30687513481E+01
 0.40262713202E+01 0.57872308994E+01 0.89427687714E+01 0.14356963759E+02 0.23211690467E+02
 0.36770665799E+02 0.55654686041E+02 0.79239895462E+02 0.10543736966E+03 0.13110839608E+03
 0.15304351062E+03 0.16907137842E+03 0.17874498276E+03 0.18326742181E+03 0.18471613723E+03
 0.18495334134E+03 0.18471630828E+03 0.18326773456E+03 0.17874538093E+03 0.16907179666E+03
 0.15304389209E+03 0.13110870552E+03 0.10543759670E+03 0.79240048574E+02 0.55654782342E+02
 0.36770722812E+02 0.23211722254E+02 0.14356980473E+02 0.89427774398E+01 0.57872356147E+01
 0.40262739397E+01 0.30687526239E+01 0.25565588995E+01 0.22901225732E+01 0.21641104492E+01
 0.21272804514E+01 0.21641101816E+01 0.22901218757E+01 0.25565576044E+01 0.30687506228E+01